ITEM: TIMESTEP
0
ITEM: NUMBER OF ATOMS
400
ITEM: BOX BOUNDS ff ff ff
-1.0000000000000000e+01 1.0000000000000000e+01
-1.0000000000000000e+01 1.0000000000000000e+01
-2.0000000000000000e+00 2.6000000000000000e+01
ITEM: ATOMS id type xs ys zs
23 1 0.295113 0.229921 0.0801002
26 1 0.355743 0.193225 0.0801002
27 1 0.3886 0.179827 0.12402
29 1 0.492991 0.161072 0.0801002
30 1 0.457602 0.163662 0.12402
21 1 0.175495 0.401931 0.0801002
22 1 0.167022 0.436388 0.12402
24 1 0.202976 0.336606 0.0801002
25 1 0.221682 0.306453 0.12402
28 1 0.268005 0.252817 0.12402
63 1 0.295113 0.229921 0.16794
66 1 0.355743 0.193225 0.16794
67 1 0.3886 0.179827 0.21186
69 1 0.492991 0.161072 0.16794
70 1 0.457602 0.163662 0.21186
103 1 0.295113 0.229921 0.25578
106 1 0.355743 0.193225 0.25578
107 1 0.3886 0.179827 0.299699
109 1 0.492991 0.161072 0.25578
110 1 0.457602 0.163662 0.299699
61 1 0.175495 0.401931 0.16794
62 1 0.167022 0.436388 0.21186
64 1 0.202976 0.336606 0.16794
65 1 0.221682 0.306453 0.21186
101 1 0.175495 0.401931 0.25578
102 1 0.167022 0.436388 0.299699
104 1 0.202976 0.336606 0.25578
105 1 0.221682 0.306453 0.299699
68 1 0.268005 0.252817 0.21186
108 1 0.268005 0.252817 0.299699
143 1 0.295113 0.229921 0.343619
146 1 0.355743 0.193225 0.343619
147 1 0.3886 0.179827 0.387539
149 1 0.492991 0.161072 0.343619
150 1 0.457602 0.163662 0.387539
183 1 0.295113 0.229921 0.431459
186 1 0.355743 0.193225 0.431459
187 1 0.3886 0.179827 0.475379
189 1 0.492991 0.161072 0.431459
190 1 0.457602 0.163662 0.475379
141 1 0.175495 0.401931 0.343619
142 1 0.167022 0.436388 0.387539
144 1 0.202976 0.336606 0.343619
145 1 0.221682 0.306453 0.387539
181 1 0.175495 0.401931 0.431459
182 1 0.167022 0.436388 0.475379
184 1 0.202976 0.336606 0.431459
185 1 0.221682 0.306453 0.475379
148 1 0.268005 0.252817 0.387539
188 1 0.268005 0.252817 0.475379
223 1 0.295113 0.229921 0.519299
226 1 0.355743 0.193225 0.519299
227 1 0.3886 0.179827 0.563219
229 1 0.492991 0.161072 0.519299
230 1 0.457602 0.163662 0.563219
263 1 0.295113 0.229921 0.607138
266 1 0.355743 0.193225 0.607138
267 1 0.3886 0.179827 0.651058
269 1 0.492991 0.161072 0.607138
270 1 0.457602 0.163662 0.651058
221 1 0.175495 0.401931 0.519299
222 1 0.167022 0.436388 0.563219
224 1 0.202976 0.336606 0.519299
225 1 0.221682 0.306453 0.563219
261 1 0.175495 0.401931 0.607138
262 1 0.167022 0.436388 0.651058
264 1 0.202976 0.336606 0.607138
265 1 0.221682 0.306453 0.651058
228 1 0.268005 0.252817 0.563219
268 1 0.268005 0.252817 0.651058
303 1 0.295113 0.229921 0.694978
306 1 0.355743 0.193225 0.694978
307 1 0.3886 0.179827 0.738898
309 1 0.492991 0.161072 0.694978
310 1 0.457602 0.163662 0.738898
343 1 0.295113 0.229921 0.782818
346 1 0.355743 0.193225 0.782818
347 1 0.3886 0.179827 0.826738
349 1 0.492991 0.161072 0.782818
350 1 0.457602 0.163662 0.826738
301 1 0.175495 0.401931 0.694978
302 1 0.167022 0.436388 0.738898
304 1 0.202976 0.336606 0.694978
305 1 0.221682 0.306453 0.738898
341 1 0.175495 0.401931 0.782818
342 1 0.167022 0.436388 0.826738
344 1 0.202976 0.336606 0.782818
345 1 0.221682 0.306453 0.826738
308 1 0.268005 0.252817 0.738898
348 1 0.268005 0.252817 0.826738
383 1 0.295113 0.229921 0.870658
386 1 0.355743 0.193225 0.870658
387 1 0.3886 0.179827 0.914577
389 1 0.492991 0.161072 0.870658
390 1 0.457602 0.163662 0.914577
381 1 0.175495 0.401931 0.870658
382 1 0.167022 0.436388 0.914577
384 1 0.202976 0.336606 0.870658
385 1 0.221682 0.306453 0.914577
388 1 0.268005 0.252817 0.914577
15 1 0.179827 0.6114 0.0801002
17 1 0.229921 0.704887 0.12402
18 1 0.163662 0.542398 0.0801002
19 1 0.161072 0.507009 0.12402
20 1 0.193225 0.644257 0.12402
16 1 0.252817 0.731995 0.0801002
10 1 0.436388 0.832978 0.0801002
11 1 0.401931 0.824505 0.12402
13 1 0.306453 0.778318 0.0801002
14 1 0.336606 0.797024 0.12402
55 1 0.179827 0.6114 0.16794
57 1 0.229921 0.704887 0.21186
58 1 0.163662 0.542398 0.16794
59 1 0.161072 0.507009 0.21186
60 1 0.193225 0.644257 0.21186
95 1 0.179827 0.6114 0.25578
97 1 0.229921 0.704887 0.299699
98 1 0.163662 0.542398 0.25578
99 1 0.161072 0.507009 0.299699
100 1 0.193225 0.644257 0.299699
56 1 0.252817 0.731995 0.16794
96 1 0.252817 0.731995 0.25578
50 1 0.436388 0.832978 0.16794
51 1 0.401931 0.824505 0.21186
53 1 0.306453 0.778318 0.16794
54 1 0.336606 0.797024 0.21186
90 1 0.436388 0.832978 0.25578
91 1 0.401931 0.824505 0.299699
93 1 0.306453 0.778318 0.25578
94 1 0.336606 0.797024 0.299699
135 1 0.179827 0.6114 0.343619
137 1 0.229921 0.704887 0.387539
138 1 0.163662 0.542398 0.343619
139 1 0.161072 0.507009 0.387539
140 1 0.193225 0.644257 0.387539
175 1 0.179827 0.6114 0.431459
177 1 0.229921 0.704887 0.475379
178 1 0.163662 0.542398 0.431459
179 1 0.161072 0.507009 0.475379
180 1 0.193225 0.644257 0.475379
136 1 0.252817 0.731995 0.343619
176 1 0.252817 0.731995 0.431459
130 1 0.436388 0.832978 0.343619
131 1 0.401931 0.824505 0.387539
133 1 0.306453 0.778318 0.343619
134 1 0.336606 0.797024 0.387539
170 1 0.436388 0.832978 0.431459
171 1 0.401931 0.824505 0.475379
173 1 0.306453 0.778318 0.431459
174 1 0.336606 0.797024 0.475379
215 1 0.179827 0.6114 0.519299
217 1 0.229921 0.704887 0.563219
218 1 0.163662 0.542398 0.519299
219 1 0.161072 0.507009 0.563219
220 1 0.193225 0.644257 0.563219
255 1 0.179827 0.6114 0.607138
257 1 0.229921 0.704887 0.651058
258 1 0.163662 0.542398 0.607138
259 1 0.161072 0.507009 0.651058
260 1 0.193225 0.644257 0.651058
216 1 0.252817 0.731995 0.519299
256 1 0.252817 0.731995 0.607138
210 1 0.436388 0.832978 0.519299
211 1 0.401931 0.824505 0.563219
213 1 0.306453 0.778318 0.519299
214 1 0.336606 0.797024 0.563219
250 1 0.436388 0.832978 0.607138
251 1 0.401931 0.824505 0.651058
253 1 0.306453 0.778318 0.607138
254 1 0.336606 0.797024 0.651058
295 1 0.179827 0.6114 0.694978
297 1 0.229921 0.704887 0.738898
298 1 0.163662 0.542398 0.694978
299 1 0.161072 0.507009 0.738898
300 1 0.193225 0.644257 0.738898
335 1 0.179827 0.6114 0.782818
337 1 0.229921 0.704887 0.826738
338 1 0.163662 0.542398 0.782818
339 1 0.161072 0.507009 0.826738
340 1 0.193225 0.644257 0.826738
296 1 0.252817 0.731995 0.694978
336 1 0.252817 0.731995 0.782818
290 1 0.436388 0.832978 0.694978
291 1 0.401931 0.824505 0.738898
293 1 0.306453 0.778318 0.694978
294 1 0.336606 0.797024 0.738898
330 1 0.436388 0.832978 0.782818
331 1 0.401931 0.824505 0.826738
333 1 0.306453 0.778318 0.782818
334 1 0.336606 0.797024 0.826738
375 1 0.179827 0.6114 0.870658
377 1 0.229921 0.704887 0.914577
378 1 0.163662 0.542398 0.870658
379 1 0.161072 0.507009 0.914577
380 1 0.193225 0.644257 0.914577
376 1 0.252817 0.731995 0.870658
370 1 0.436388 0.832978 0.870658
371 1 0.401931 0.824505 0.914577
373 1 0.306453 0.778318 0.870658
374 1 0.336606 0.797024 0.914577
31 1 0.693547 0.221682 0.0801002
32 1 0.563612 0.167022 0.0801002
33 1 0.598069 0.175495 0.12402
36 1 0.663394 0.202976 0.12402
34 1 0.747183 0.268005 0.0801002
35 1 0.770079 0.295113 0.12402
37 1 0.820173 0.3886 0.0801002
38 1 0.806775 0.355743 0.12402
39 1 0.836338 0.457602 0.0801002
40 1 0.838928 0.492991 0.12402
71 1 0.693547 0.221682 0.16794
72 1 0.563612 0.167022 0.16794
73 1 0.598069 0.175495 0.21186
76 1 0.663394 0.202976 0.21186
111 1 0.693547 0.221682 0.25578
112 1 0.563612 0.167022 0.25578
113 1 0.598069 0.175495 0.299699
116 1 0.663394 0.202976 0.299699
74 1 0.747183 0.268005 0.16794
114 1 0.747183 0.268005 0.25578
75 1 0.770079 0.295113 0.21186
77 1 0.820173 0.3886 0.16794
78 1 0.806775 0.355743 0.21186
79 1 0.836338 0.457602 0.16794
80 1 0.838928 0.492991 0.21186
115 1 0.770079 0.295113 0.299699
117 1 0.820173 0.3886 0.25578
118 1 0.806775 0.355743 0.299699
119 1 0.836338 0.457602 0.25578
120 1 0.838928 0.492991 0.299699
151 1 0.693547 0.221682 0.343619
152 1 0.563612 0.167022 0.343619
153 1 0.598069 0.175495 0.387539
156 1 0.663394 0.202976 0.387539
191 1 0.693547 0.221682 0.431459
192 1 0.563612 0.167022 0.431459
193 1 0.598069 0.175495 0.475379
196 1 0.663394 0.202976 0.475379
154 1 0.747183 0.268005 0.343619
194 1 0.747183 0.268005 0.431459
155 1 0.770079 0.295113 0.387539
157 1 0.820173 0.3886 0.343619
158 1 0.806775 0.355743 0.387539
159 1 0.836338 0.457602 0.343619
160 1 0.838928 0.492991 0.387539
195 1 0.770079 0.295113 0.475379
197 1 0.820173 0.3886 0.431459
198 1 0.806775 0.355743 0.475379
199 1 0.836338 0.457602 0.431459
200 1 0.838928 0.492991 0.475379
231 1 0.693547 0.221682 0.519299
232 1 0.563612 0.167022 0.519299
233 1 0.598069 0.175495 0.563219
236 1 0.663394 0.202976 0.563219
271 1 0.693547 0.221682 0.607138
272 1 0.563612 0.167022 0.607138
273 1 0.598069 0.175495 0.651058
276 1 0.663394 0.202976 0.651058
234 1 0.747183 0.268005 0.519299
274 1 0.747183 0.268005 0.607138
235 1 0.770079 0.295113 0.563219
237 1 0.820173 0.3886 0.519299
238 1 0.806775 0.355743 0.563219
239 1 0.836338 0.457602 0.519299
240 1 0.838928 0.492991 0.563219
275 1 0.770079 0.295113 0.651058
277 1 0.820173 0.3886 0.607138
278 1 0.806775 0.355743 0.651058
279 1 0.836338 0.457602 0.607138
280 1 0.838928 0.492991 0.651058
311 1 0.693547 0.221682 0.694978
312 1 0.563612 0.167022 0.694978
313 1 0.598069 0.175495 0.738898
316 1 0.663394 0.202976 0.738898
351 1 0.693547 0.221682 0.782818
352 1 0.563612 0.167022 0.782818
353 1 0.598069 0.175495 0.826738
356 1 0.663394 0.202976 0.826738
314 1 0.747183 0.268005 0.694978
354 1 0.747183 0.268005 0.782818
315 1 0.770079 0.295113 0.738898
317 1 0.820173 0.3886 0.694978
318 1 0.806775 0.355743 0.738898
319 1 0.836338 0.457602 0.694978
320 1 0.838928 0.492991 0.738898
355 1 0.770079 0.295113 0.826738
357 1 0.820173 0.3886 0.782818
358 1 0.806775 0.355743 0.826738
359 1 0.836338 0.457602 0.782818
360 1 0.838928 0.492991 0.826738
391 1 0.693547 0.221682 0.870658
392 1 0.563612 0.167022 0.870658
393 1 0.598069 0.175495 0.914577
396 1 0.663394 0.202976 0.914577
394 1 0.747183 0.268005 0.870658
395 1 0.770079 0.295113 0.914577
397 1 0.820173 0.3886 0.870658
398 1 0.806775 0.355743 0.914577
399 1 0.836338 0.457602 0.870658
400 1 0.838928 0.492991 0.914577
6 1 0.731995 0.747183 0.12402
1 1 0.824505 0.598069 0.0801002
2 1 0.797024 0.663394 0.0801002
3 1 0.778318 0.693547 0.12402
4 1 0.832978 0.563612 0.12402
5 1 0.704887 0.770079 0.0801002
7 1 0.507009 0.838928 0.0801002
8 1 0.644257 0.806775 0.0801002
9 1 0.6114 0.820173 0.12402
12 1 0.542398 0.836338 0.12402
46 1 0.731995 0.747183 0.21186
86 1 0.731995 0.747183 0.299699
41 1 0.824505 0.598069 0.16794
42 1 0.797024 0.663394 0.16794
43 1 0.778318 0.693547 0.21186
44 1 0.832978 0.563612 0.21186
81 1 0.824505 0.598069 0.25578
82 1 0.797024 0.663394 0.25578
83 1 0.778318 0.693547 0.299699
84 1 0.832978 0.563612 0.299699
45 1 0.704887 0.770079 0.16794
47 1 0.507009 0.838928 0.16794
48 1 0.644257 0.806775 0.16794
49 1 0.6114 0.820173 0.21186
52 1 0.542398 0.836338 0.21186
85 1 0.704887 0.770079 0.25578
87 1 0.507009 0.838928 0.25578
88 1 0.644257 0.806775 0.25578
89 1 0.6114 0.820173 0.299699
92 1 0.542398 0.836338 0.299699
126 1 0.731995 0.747183 0.387539
166 1 0.731995 0.747183 0.475379
121 1 0.824505 0.598069 0.343619
122 1 0.797024 0.663394 0.343619
123 1 0.778318 0.693547 0.387539
124 1 0.832978 0.563612 0.387539
161 1 0.824505 0.598069 0.431459
162 1 0.797024 0.663394 0.431459
163 1 0.778318 0.693547 0.475379
164 1 0.832978 0.563612 0.475379
125 1 0.704887 0.770079 0.343619
127 1 0.507009 0.838928 0.343619
128 1 0.644257 0.806775 0.343619
129 1 0.6114 0.820173 0.387539
132 1 0.542398 0.836338 0.387539
165 1 0.704887 0.770079 0.431459
167 1 0.507009 0.838928 0.431459
168 1 0.644257 0.806775 0.431459
169 1 0.6114 0.820173 0.475379
172 1 0.542398 0.836338 0.475379
206 1 0.731995 0.747183 0.563219
246 1 0.731995 0.747183 0.651058
201 1 0.824505 0.598069 0.519299
202 1 0.797024 0.663394 0.519299
203 1 0.778318 0.693547 0.563219
204 1 0.832978 0.563612 0.563219
241 1 0.824505 0.598069 0.607138
242 1 0.797024 0.663394 0.607138
243 1 0.778318 0.693547 0.651058
244 1 0.832978 0.563612 0.651058
205 1 0.704887 0.770079 0.519299
207 1 0.507009 0.838928 0.519299
208 1 0.644257 0.806775 0.519299
209 1 0.6114 0.820173 0.563219
212 1 0.542398 0.836338 0.563219
245 1 0.704887 0.770079 0.607138
247 1 0.507009 0.838928 0.607138
248 1 0.644257 0.806775 0.607138
249 1 0.6114 0.820173 0.651058
252 1 0.542398 0.836338 0.651058
286 1 0.731995 0.747183 0.738898
326 1 0.731995 0.747183 0.826738
281 1 0.824505 0.598069 0.694978
282 1 0.797024 0.663394 0.694978
283 1 0.778318 0.693547 0.738898
284 1 0.832978 0.563612 0.738898
321 1 0.824505 0.598069 0.782818
322 1 0.797024 0.663394 0.782818
323 1 0.778318 0.693547 0.826738
324 1 0.832978 0.563612 0.826738
285 1 0.704887 0.770079 0.694978
287 1 0.507009 0.838928 0.694978
288 1 0.644257 0.806775 0.694978
289 1 0.6114 0.820173 0.738898
292 1 0.542398 0.836338 0.738898
325 1 0.704887 0.770079 0.782818
327 1 0.507009 0.838928 0.782818
328 1 0.644257 0.806775 0.782818
329 1 0.6114 0.820173 0.826738
332 1 0.542398 0.836338 0.826738
366 1 0.731995 0.747183 0.914577
361 1 0.824505 0.598069 0.870658
362 1 0.797024 0.663394 0.870658
363 1 0.778318 0.693547 0.914577
364 1 0.832978 0.563612 0.914577
365 1 0.704887 0.770079 0.870658
367 1 0.507009 0.838928 0.870658
368 1 0.644257 0.806775 0.870658
369 1 0.6114 0.820173 0.914577
372 1 0.542398 0.836338 0.914577
ITEM: TIMESTEP
1000
ITEM: NUMBER OF ATOMS
400
ITEM: BOX BOUNDS ff ff ff
-1.0000000000000000e+01 1.0000000000000000e+01
-1.0000000000000000e+01 1.0000000000000000e+01
-2.0000000000000000e+00 2.6000000000000000e+01
ITEM: ATOMS id type xs ys zs
23 1 0.295113 0.229921 0.0801002
26 1 0.355743 0.193225 0.0801002
27 1 0.389154 0.180954 0.123696
29 1 0.492991 0.161072 0.0801002
30 1 0.45574 0.162019 0.122587
21 1 0.175495 0.401931 0.0801002
22 1 0.169753 0.439059 0.123206
24 1 0.202976 0.336606 0.0801002
25 1 0.224176 0.308702 0.124295
28 1 0.261881 0.249894 0.123138
63 1 0.291737 0.229357 0.166709
66 1 0.354706 0.196784 0.167103
67 1 0.391048 0.18622 0.209133
69 1 0.493628 0.160014 0.166449
70 1 0.458578 0.167753 0.210201
103 1 0.294269 0.232586 0.253607
106 1 0.355568 0.198424 0.252826
107 1 0.390562 0.193244 0.29827
109 1 0.493727 0.170572 0.253998
110 1 0.461123 0.182376 0.298318
61 1 0.182971 0.403592 0.166347
62 1 0.171932 0.437033 0.209893
64 1 0.205756 0.337695 0.168639
65 1 0.221102 0.306644 0.211919
101 1 0.178653 0.402035 0.254151
102 1 0.177507 0.436996 0.297892
104 1 0.203012 0.337917 0.25671
105 1 0.218278 0.302822 0.298439
68 1 0.266529 0.253481 0.209018
108 1 0.265841 0.252659 0.297097
143 1 0.294533 0.232998 0.342221
146 1 0.358276 0.205237 0.342185
147 1 0.392327 0.200916 0.385506
149 1 0.495689 0.189167 0.341972
150 1 0.46177 0.194807 0.386304
183 1 0.295117 0.235411 0.428815
186 1 0.360069 0.208846 0.428959
187 1 0.393232 0.204311 0.473782
189 1 0.495153 0.195828 0.428925
190 1 0.461775 0.195791 0.473434
141 1 0.185062 0.40367 0.341468
142 1 0.177423 0.435145 0.385601
144 1 0.207846 0.337006 0.341802
145 1 0.222222 0.308278 0.385542
181 1 0.182252 0.401228 0.429964
182 1 0.181928 0.436459 0.472654
184 1 0.20332 0.33474 0.429154
185 1 0.215863 0.301633 0.472799
148 1 0.266576 0.255233 0.385563
188 1 0.267385 0.255721 0.473313
223 1 0.295078 0.235592 0.517903
226 1 0.362111 0.213929 0.518569
227 1 0.395217 0.208752 0.562995
229 1 0.497166 0.192769 0.518589
230 1 0.462698 0.197184 0.561913
263 1 0.290265 0.230615 0.607368
266 1 0.35896 0.207536 0.606045
267 1 0.389963 0.196264 0.65163
269 1 0.495042 0.190249 0.607301
270 1 0.459137 0.185243 0.651812
221 1 0.188735 0.402235 0.515755
222 1 0.18714 0.434952 0.559845
224 1 0.20612 0.334822 0.516772
225 1 0.217531 0.303927 0.560883
261 1 0.188325 0.400247 0.60553
262 1 0.180608 0.4353 0.647628
264 1 0.195421 0.330362 0.604971
265 1 0.212701 0.298794 0.648838
228 1 0.26525 0.251707 0.561865
268 1 0.259982 0.247851 0.650645
303 1 0.287231 0.224997 0.693493
306 1 0.354444 0.197686 0.695501
307 1 0.389708 0.190064 0.738455
309 1 0.495206 0.182029 0.695514
310 1 0.45818 0.179687 0.738441
343 1 0.288904 0.227664 0.782964
346 1 0.351946 0.196413 0.78157
347 1 0.385509 0.183745 0.82615
349 1 0.493078 0.170372 0.781902
350 1 0.454604 0.170795 0.824003
301 1 0.180147 0.400745 0.694498
302 1 0.172132 0.433638 0.73813
304 1 0.192085 0.328934 0.693175
305 1 0.213583 0.297823 0.737567
341 1 0.177452 0.398214 0.782485
342 1 0.169921 0.434789 0.825951
344 1 0.196939 0.329647 0.782025
345 1 0.218941 0.303842 0.826278
308 1 0.258467 0.245979 0.738444
348 1 0.265402 0.249144 0.826666
383 1 0.29846 0.231779 0.871105
386 1 0.354902 0.193312 0.870526
387 1 0.3886 0.179827 0.914577
389 1 0.493624 0.16675 0.869701
390 1 0.457602 0.163662 0.914577
381 1 0.173194 0.398667 0.87024
382 1 0.167022 0.436388 0.914577
384 1 0.198735 0.334126 0.870237
385 1 0.221682 0.306453 0.914577
388 1 0.268005 0.252817 0.914577
15 1 0.179827 0.6114 0.0801002
17 1 0.22676 0.707673 0.122871
18 1 0.163662 0.542398 0.0801002
19 1 0.162566 0.507617 0.123398
20 1 0.19259 0.647656 0.121541
16 1 0.252817 0.731995 0.0801002
10 1 0.436388 0.832978 0.0801002
11 1 0.401976 0.8173 0.122293
13 1 0.306453 0.778318 0.0801002
14 1 0.337255 0.793222 0.123599
55 1 0.176847 0.612072 0.167138
57 1 0.230124 0.706613 0.209754
58 1 0.164494 0.545251 0.166108
59 1 0.168208 0.508404 0.209995
60 1 0.192807 0.645716 0.208868
95 1 0.185662 0.612551 0.254083
97 1 0.229444 0.70425 0.297154
98 1 0.177024 0.542748 0.25492
99 1 0.175232 0.506273 0.297262
100 1 0.197562 0.643269 0.298571
56 1 0.249129 0.735031 0.167218
96 1 0.251475 0.731579 0.254521
50 1 0.435821 0.826387 0.166232
51 1 0.402303 0.817779 0.210524
53 1 0.301683 0.782463 0.165475
54 1 0.333457 0.799149 0.209629
90 1 0.434591 0.827372 0.254317
91 1 0.398135 0.818773 0.300507
93 1 0.303752 0.779483 0.25417
94 1 0.331104 0.797398 0.299008
135 1 0.189084 0.609556 0.341748
137 1 0.227812 0.708095 0.385626
138 1 0.181003 0.541043 0.342032
139 1 0.173642 0.505337 0.386055
140 1 0.202868 0.642332 0.384556
175 1 0.195848 0.608723 0.428153
177 1 0.227864 0.70747 0.473972
178 1 0.186932 0.539522 0.428536
179 1 0.183968 0.506465 0.472825
180 1 0.201974 0.640867 0.471518
136 1 0.2498 0.733019 0.341068
176 1 0.247384 0.73701 0.430138
130 1 0.434044 0.818843 0.343844
131 1 0.401518 0.812385 0.387027
133 1 0.300861 0.780571 0.343449
134 1 0.332496 0.794348 0.38683
170 1 0.433971 0.810674 0.431963
171 1 0.401729 0.808044 0.475718
173 1 0.299486 0.783064 0.4312
174 1 0.33329 0.794882 0.473461
215 1 0.191023 0.610251 0.517179
217 1 0.231443 0.706029 0.562656
218 1 0.187096 0.540315 0.517467
219 1 0.184381 0.505977 0.561057
220 1 0.202713 0.641883 0.561408
255 1 0.196552 0.609529 0.605504
257 1 0.227599 0.706313 0.651853
258 1 0.18303 0.540078 0.604754
259 1 0.183527 0.503793 0.649082
260 1 0.201052 0.640104 0.650249
216 1 0.248396 0.733126 0.519212
256 1 0.24971 0.736038 0.608479
210 1 0.435393 0.816851 0.521209
211 1 0.397902 0.817359 0.562764
213 1 0.301732 0.780863 0.518299
214 1 0.331712 0.796688 0.563351
250 1 0.433082 0.82321 0.607934
251 1 0.399594 0.823485 0.652228
253 1 0.301298 0.784342 0.608259
254 1 0.328895 0.804955 0.653058
295 1 0.189748 0.608164 0.694772
297 1 0.229926 0.707018 0.739881
298 1 0.183288 0.537946 0.694404
299 1 0.176024 0.504232 0.73929
300 1 0.198115 0.644801 0.737701
335 1 0.179653 0.612436 0.78167
337 1 0.225632 0.703338 0.827661
338 1 0.166553 0.540429 0.781894
339 1 0.169857 0.507089 0.826824
340 1 0.189923 0.643266 0.825924
296 1 0.247442 0.734344 0.695382
336 1 0.249466 0.732035 0.783543
290 1 0.432805 0.827169 0.696113
291 1 0.39977 0.819213 0.740224
293 1 0.302488 0.779338 0.69623
294 1 0.333526 0.797905 0.740271
330 1 0.434064 0.83084 0.782497
331 1 0.398981 0.827625 0.825805
333 1 0.30308 0.776058 0.784038
334 1 0.333784 0.801758 0.827873
375 1 0.178909 0.611697 0.870018
377 1 0.229921 0.704887 0.914577
378 1 0.170075 0.542126 0.870543
379 1 0.161072 0.507009 0.914577
380 1 0.193225 0.644257 0.914577
376 1 0.253546 0.730668 0.868766
370 1 0.434889 0.83574 0.86959
371 1 0.401931 0.824505 0.914577
373 1 0.305195 0.776331 0.871774
374 1 0.336606 0.797024 0.914577
31 1 0.693547 0.221682 0.0801002
32 1 0.563612 0.167022 0.0801002
33 1 0.597813 0.176386 0.123605
36 1 0.663244 0.201636 0.123327
34 1 0.747183 0.268005 0.0801002
35 1 0.768186 0.294496 0.123664
37 1 0.820173 0.3886 0.0801002
38 1 0.802424 0.356702 0.124637
39 1 0.836338 0.457602 0.0801002
40 1 0.833001 0.493313 0.123644
71 1 0.693285 0.218098 0.166794
72 1 0.564428 0.166501 0.167196
73 1 0.598582 0.173954 0.211137
76 1 0.664074 0.199576 0.210349
111 1 0.699946 0.214632 0.255351
112 1 0.564524 0.173892 0.256114
113 1 0.598764 0.18223 0.299269
116 1 0.668404 0.195156 0.298795
74 1 0.746171 0.264799 0.167364
114 1 0.753216 0.262506 0.254883
75 1 0.766095 0.294223 0.210509
77 1 0.81133 0.391216 0.167231
78 1 0.79906 0.35777 0.212309
79 1 0.83277 0.459347 0.169317
80 1 0.829193 0.495562 0.212965
115 1 0.768836 0.295462 0.298721
117 1 0.810096 0.392066 0.256562
118 1 0.795896 0.358078 0.30022
119 1 0.830439 0.459358 0.256894
120 1 0.826253 0.493798 0.300897
151 1 0.699915 0.214582 0.342996
152 1 0.565443 0.182012 0.343382
153 1 0.600407 0.182717 0.38671
156 1 0.669427 0.197769 0.386601
191 1 0.698656 0.218893 0.430548
192 1 0.563086 0.189531 0.430137
193 1 0.597891 0.190878 0.473793
196 1 0.665602 0.206264 0.474531
154 1 0.749273 0.26421 0.34159
194 1 0.747562 0.267858 0.430038
155 1 0.769813 0.293953 0.386287
157 1 0.803934 0.391079 0.344107
158 1 0.793082 0.358726 0.386965
159 1 0.81782 0.459014 0.345097
160 1 0.81408 0.492794 0.388452
195 1 0.767196 0.294365 0.47592
197 1 0.798542 0.390946 0.431741
198 1 0.791028 0.360393 0.47648
199 1 0.812297 0.46069 0.431988
200 1 0.81924 0.493781 0.476791
231 1 0.698276 0.21989 0.519611
232 1 0.566114 0.185016 0.517653
233 1 0.598483 0.186399 0.563006
236 1 0.667642 0.200999 0.563542
271 1 0.701044 0.215356 0.607795
272 1 0.565816 0.186301 0.607388
273 1 0.60078 0.183743 0.652384
276 1 0.670832 0.197641 0.651084
234 1 0.748201 0.268303 0.519649
274 1 0.747987 0.264844 0.60776
235 1 0.770332 0.293593 0.56412
237 1 0.803046 0.392152 0.520123
238 1 0.790911 0.360353 0.564265
239 1 0.814436 0.460439 0.520488
240 1 0.827886 0.493542 0.565985
275 1 0.769061 0.295533 0.651536
277 1 0.807832 0.39165 0.607552
278 1 0.794376 0.359434 0.652123
279 1 0.821953 0.45899 0.608875
280 1 0.833169 0.492511 0.652058
311 1 0.699012 0.218508 0.695716
312 1 0.565262 0.179275 0.695863
313 1 0.597728 0.182793 0.740781
316 1 0.666266 0.201706 0.740085
351 1 0.698481 0.220641 0.783619
352 1 0.56285 0.173285 0.783192
353 1 0.599634 0.173756 0.826259
356 1 0.667859 0.199637 0.82553
314 1 0.752526 0.262991 0.696592
354 1 0.752538 0.264339 0.783952
315 1 0.772837 0.293001 0.740139
317 1 0.808248 0.390723 0.696848
318 1 0.805098 0.35655 0.739693
319 1 0.826141 0.458894 0.696766
320 1 0.828508 0.494183 0.739913
355 1 0.771557 0.295155 0.827184
357 1 0.820465 0.387516 0.782642
358 1 0.810433 0.353717 0.826818
359 1 0.83703 0.456876 0.782438
360 1 0.837054 0.492236 0.825295
391 1 0.692244 0.224616 0.870264
392 1 0.56316 0.170202 0.869899
393 1 0.598069 0.175495 0.914577
396 1 0.663394 0.202976 0.914577
394 1 0.745871 0.268485 0.869945
395 1 0.770079 0.295113 0.914577
397 1 0.824499 0.386845 0.870148
398 1 0.806775 0.355743 0.914577
399 1 0.835758 0.456794 0.87065
400 1 0.838928 0.492991 0.914577
6 1 0.735911 0.749112 0.124044
1 1 0.824505 0.598069 0.0801002
2 1 0.797024 0.663394 0.0801002
3 1 0.783017 0.69753 0.122805
4 1 0.83227 0.562107 0.123373
5 1 0.704887 0.770079 0.0801002
7 1 0.507009 0.838928 0.0801002
8 1 0.644257 0.806775 0.0801002
9 1 0.612279 0.819988 0.123642
12 1 0.544479 0.831869 0.124455
46 1 0.737746 0.752024 0.211412
86 1 0.738099 0.747016 0.300075
41 1 0.81973 0.597908 0.166768
42 1 0.803288 0.66715 0.167174
43 1 0.787672 0.699127 0.211108
44 1 0.823146 0.565467 0.211223
81 1 0.816027 0.598472 0.254268
82 1 0.801234 0.666707 0.255775
83 1 0.784018 0.694232 0.299613
84 1 0.822582 0.56283 0.299978
45 1 0.707245 0.770715 0.168094
47 1 0.507869 0.82719 0.167979
48 1 0.643961 0.801832 0.167947
49 1 0.612271 0.809287 0.213124
52 1 0.541255 0.825202 0.21236
85 1 0.708162 0.767792 0.255721
87 1 0.505354 0.825874 0.256176
88 1 0.64368 0.791628 0.255619
89 1 0.611637 0.803104 0.298437
92 1 0.540275 0.813199 0.298687
126 1 0.736042 0.743517 0.388792
166 1 0.733547 0.741575 0.477421
121 1 0.817167 0.596201 0.344457
122 1 0.804565 0.666116 0.34404
123 1 0.7865 0.695329 0.387672
124 1 0.818922 0.563142 0.389099
161 1 0.82319 0.597521 0.433096
162 1 0.802527 0.66669 0.432233
163 1 0.787363 0.693851 0.477358
164 1 0.822023 0.563922 0.476519
125 1 0.706306 0.763623 0.344774
127 1 0.50405 0.812295 0.344202
128 1 0.641111 0.789044 0.344318
129 1 0.606189 0.792447 0.387566
132 1 0.537561 0.802559 0.387784
165 1 0.706995 0.761271 0.433323
167 1 0.504676 0.804574 0.431464
168 1 0.639002 0.782192 0.432343
169 1 0.606168 0.787173 0.477578
172 1 0.537413 0.799604 0.4751
206 1 0.733674 0.744445 0.56453
246 1 0.733064 0.744553 0.652205
201 1 0.823858 0.595667 0.521714
202 1 0.805079 0.664142 0.520527
203 1 0.7818 0.691174 0.563884
204 1 0.828778 0.563619 0.565898
241 1 0.824581 0.596527 0.609738
242 1 0.794645 0.661782 0.60859
243 1 0.781996 0.694412 0.652919
244 1 0.829045 0.562955 0.653374
205 1 0.704663 0.761731 0.520262
207 1 0.50699 0.80726 0.521295
208 1 0.639679 0.786939 0.520838
209 1 0.609004 0.795588 0.56478
212 1 0.541467 0.812855 0.563947
245 1 0.707041 0.766147 0.608458
247 1 0.505599 0.817539 0.606795
248 1 0.642063 0.794229 0.60769
249 1 0.611191 0.802629 0.651089
252 1 0.540276 0.815509 0.652052
286 1 0.732591 0.745244 0.73816
326 1 0.733382 0.746974 0.826792
281 1 0.824938 0.596787 0.696095
282 1 0.800748 0.661571 0.696623
283 1 0.781815 0.694768 0.740968
284 1 0.825281 0.563911 0.739608
321 1 0.820316 0.598095 0.783383
322 1 0.796535 0.663527 0.784335
323 1 0.777585 0.691268 0.828451
324 1 0.83092 0.562625 0.826959
285 1 0.707259 0.767091 0.695698
287 1 0.503206 0.825475 0.69603
288 1 0.643671 0.79778 0.695514
289 1 0.611395 0.810015 0.73907
292 1 0.5408 0.822274 0.740299
325 1 0.705618 0.766594 0.782559
327 1 0.504923 0.829625 0.783076
328 1 0.643038 0.798557 0.783486
329 1 0.613257 0.814561 0.827566
332 1 0.542935 0.828271 0.827365
366 1 0.731995 0.747183 0.914577
361 1 0.817197 0.595377 0.871165
362 1 0.795584 0.659641 0.872851
363 1 0.778318 0.693547 0.914577
364 1 0.832978 0.563612 0.914577
365 1 0.705784 0.768603 0.870846
367 1 0.505925 0.837637 0.871377
368 1 0.645792 0.803425 0.872768
369 1 0.6114 0.820173 0.914577
372 1 0.542398 0.836338 0.914577
ITEM: TIMESTEP
2000
ITEM: NUMBER OF ATOMS
400
ITEM: BOX BOUNDS ff ff ff
-1.0000000000000000e+01 1.0000000000000000e+01
-1.0000000000000000e+01 1.0000000000000000e+01
-2.0000000000000000e+00 2.6000000000000000e+01
ITEM: ATOMS id type xs ys zs
23 1 0.295113 0.229921 0.0801002
26 1 0.355743 0.193225 0.0801002
27 1 0.390433 0.178848 0.123717
29 1 0.492991 0.161072 0.0801002
30 1 0.456266 0.162665 0.12315
63 1 0.295978 0.230164 0.166398
66 1 0.354428 0.189398 0.167483
21 1 0.175495 0.401931 0.0801002
22 1 0.168811 0.435798 0.124019
24 1 0.202976 0.336606 0.0801002
25 1 0.225709 0.308689 0.123403
61 1 0.175997 0.403705 0.167014
28 1 0.270959 0.255548 0.122849
67 1 0.384563 0.174803 0.212443
69 1 0.490661 0.162446 0.16786
70 1 0.457789 0.168589 0.21226
103 1 0.295708 0.228898 0.25411
106 1 0.354881 0.195163 0.255736
107 1 0.38759 0.178875 0.299905
109 1 0.492134 0.166062 0.254857
110 1 0.456089 0.166597 0.299579
62 1 0.16544 0.436109 0.209509
64 1 0.203376 0.337281 0.166681
65 1 0.222272 0.305706 0.210398
101 1 0.168691 0.40031 0.253594
102 1 0.163361 0.433959 0.297923
104 1 0.203471 0.337924 0.253067
105 1 0.222634 0.310852 0.29728
68 1 0.269236 0.251787 0.210289
108 1 0.273478 0.261065 0.297196
143 1 0.294398 0.231375 0.342245
146 1 0.355491 0.193523 0.342913
147 1 0.387067 0.180392 0.386132
149 1 0.491736 0.165246 0.341303
150 1 0.457541 0.168549 0.386049
183 1 0.292889 0.228887 0.429984
186 1 0.354378 0.191282 0.431798
187 1 0.389306 0.18387 0.474276
189 1 0.491684 0.166866 0.430376
190 1 0.457825 0.165008 0.474115
141 1 0.179096 0.402814 0.342109
142 1 0.174425 0.437371 0.38505
144 1 0.205803 0.337902 0.341962
145 1 0.219109 0.304198 0.386038
181 1 0.185115 0.401207 0.428201
182 1 0.170767 0.433043 0.472326
184 1 0.199408 0.333604 0.429205
185 1 0.217767 0.301686 0.47264
148 1 0.268253 0.253285 0.387253
188 1 0.262716 0.24792 0.473221
223 1 0.29549 0.232749 0.51787
226 1 0.357161 0.195301 0.518301
227 1 0.390437 0.177958 0.560807
229 1 0.493442 0.16101 0.516731
230 1 0.458672 0.161167 0.56088
263 1 0.306764 0.238062 0.605565
266 1 0.365209 0.199015 0.605723
267 1 0.392389 0.183625 0.652051
269 1 0.494436 0.156002 0.6067
270 1 0.46087 0.164573 0.650834
268 1 0.276673 0.260626 0.648141
221 1 0.176806 0.400086 0.518009
222 1 0.170942 0.435961 0.56215
224 1 0.203247 0.335353 0.517097
225 1 0.222292 0.306686 0.562372
261 1 0.183942 0.402771 0.605917
262 1 0.171339 0.436627 0.650053
264 1 0.207045 0.338145 0.605771
265 1 0.224032 0.305861 0.64976
228 1 0.274239 0.256727 0.56219
303 1 0.300449 0.23747 0.694557
306 1 0.361518 0.199489 0.695237
307 1 0.390082 0.181234 0.740141
309 1 0.493456 0.162578 0.695817
310 1 0.45823 0.164945 0.73912
343 1 0.300015 0.239389 0.781738
346 1 0.359114 0.200122 0.782014
347 1 0.388904 0.180749 0.826304
349 1 0.492672 0.163327 0.783114
350 1 0.458124 0.166279 0.826773
308 1 0.271932 0.258556 0.738687
301 1 0.183369 0.401525 0.695061
302 1 0.173596 0.435082 0.739251
304 1 0.207371 0.335807 0.69353
305 1 0.224295 0.307835 0.738078
341 1 0.179234 0.402611 0.783673
342 1 0.167844 0.437326 0.827883
344 1 0.206104 0.336727 0.781867
345 1 0.227942 0.309973 0.827148
348 1 0.269793 0.256307 0.825571
383 1 0.297722 0.231036 0.871353
386 1 0.358581 0.195117 0.870152
387 1 0.3886 0.179827 0.914577
389 1 0.492209 0.163983 0.870731
390 1 0.457602 0.163662 0.914577
381 1 0.179591 0.403419 0.870441
382 1 0.167022 0.436388 0.914577
384 1 0.206183 0.337993 0.871429
385 1 0.221682 0.306453 0.914577
388 1 0.268005 0.252817 0.914577
15 1 0.179827 0.6114 0.0801002
17 1 0.229913 0.703908 0.123596