ITEM: TIMESTEP
0
ITEM: NUMBER OF ATOMS
1600
ITEM: BOX BOUNDS ff ff ff
-1.0000000000000000e+01 1.0000000000000000e+01
-1.0000000000000000e+01 1.0000000000000000e+01
-2.0000000000000000e+00 1.0000000000000000e+02
ITEM: ATOMS id type xs ys zs
23 1 0.295113 0.229921 0.0219883
26 1 0.355743 0.193225 0.0219883
27 1 0.3886 0.179827 0.0340447
29 1 0.492991 0.161072 0.0219883
30 1 0.457602 0.163662 0.0340447
31 1 0.693547 0.221682 0.0219883
32 1 0.563612 0.167022 0.0219883
33 1 0.598069 0.175495 0.0340447
36 1 0.663394 0.202976 0.0340447
21 1 0.175495 0.401931 0.0219883
22 1 0.167022 0.436388 0.0340447
24 1 0.202976 0.336606 0.0219883
25 1 0.221682 0.306453 0.0340447
28 1 0.268005 0.252817 0.0340447
34 1 0.747183 0.268005 0.0219883
35 1 0.770079 0.295113 0.0340447
37 1 0.820173 0.3886 0.0219883
38 1 0.806775 0.355743 0.0340447
39 1 0.836338 0.457602 0.0219883
40 1 0.838928 0.492991 0.0340447
15 1 0.179827 0.6114 0.0219883
17 1 0.229921 0.704887 0.0340447
18 1 0.163662 0.542398 0.0219883
19 1 0.161072 0.507009 0.0340447
20 1 0.193225 0.644257 0.0340447
16 1 0.252817 0.731995 0.0219883
6 1 0.731995 0.747183 0.0340447
1 1 0.824505 0.598069 0.0219883
2 1 0.797024 0.663394 0.0219883
3 1 0.778318 0.693547 0.0340447
4 1 0.832978 0.563612 0.0340447
10 1 0.436388 0.832978 0.0219883
11 1 0.401931 0.824505 0.0340447
13 1 0.306453 0.778318 0.0219883
14 1 0.336606 0.797024 0.0340447
5 1 0.704887 0.770079 0.0219883
7 1 0.507009 0.838928 0.0219883
8 1 0.644257 0.806775 0.0219883
9 1 0.6114 0.820173 0.0340447
12 1 0.542398 0.836338 0.0340447
63 1 0.295113 0.229921 0.0461011
66 1 0.355743 0.193225 0.0461011
67 1 0.3886 0.179827 0.0581576
69 1 0.492991 0.161072 0.0461011
70 1 0.457602 0.163662 0.0581576
103 1 0.295113 0.229921 0.070214
106 1 0.355743 0.193225 0.070214
107 1 0.3886 0.179827 0.0822704
109 1 0.492991 0.161072 0.070214
110 1 0.457602 0.163662 0.0822704
71 1 0.693547 0.221682 0.0461011
72 1 0.563612 0.167022 0.0461011
73 1 0.598069 0.175495 0.0581576
76 1 0.663394 0.202976 0.0581576
111 1 0.693547 0.221682 0.070214
112 1 0.563612 0.167022 0.070214
113 1 0.598069 0.175495 0.0822704
116 1 0.663394 0.202976 0.0822704
61 1 0.175495 0.401931 0.0461011
62 1 0.167022 0.436388 0.0581576
64 1 0.202976 0.336606 0.0461011
65 1 0.221682 0.306453 0.0581576
101 1 0.175495 0.401931 0.070214
102 1 0.167022 0.436388 0.0822704
104 1 0.202976 0.336606 0.070214
105 1 0.221682 0.306453 0.0822704
68 1 0.268005 0.252817 0.0581576
108 1 0.268005 0.252817 0.0822704
74 1 0.747183 0.268005 0.0461011
114 1 0.747183 0.268005 0.070214
75 1 0.770079 0.295113 0.0581576
77 1 0.820173 0.3886 0.0461011
78 1 0.806775 0.355743 0.0581576
79 1 0.836338 0.457602 0.0461011
80 1 0.838928 0.492991 0.0581576
115 1 0.770079 0.295113 0.0822704
117 1 0.820173 0.3886 0.070214
118 1 0.806775 0.355743 0.0822704
119 1 0.836338 0.457602 0.070214
120 1 0.838928 0.492991 0.0822704
55 1 0.179827 0.6114 0.0461011
57 1 0.229921 0.704887 0.0581576
58 1 0.163662 0.542398 0.0461011
59 1 0.161072 0.507009 0.0581576
60 1 0.193225 0.644257 0.0581576
95 1 0.179827 0.6114 0.070214
97 1 0.229921 0.704887 0.0822704
98 1 0.163662 0.542398 0.070214
99 1 0.161072 0.507009 0.0822704
100 1 0.193225 0.644257 0.0822704
56 1 0.252817 0.731995 0.0461011
96 1 0.252817 0.731995 0.070214
46 1 0.731995 0.747183 0.0581576
86 1 0.731995 0.747183 0.0822704
41 1 0.824505 0.598069 0.0461011
42 1 0.797024 0.663394 0.0461011
43 1 0.778318 0.693547 0.0581576
44 1 0.832978 0.563612 0.0581576
81 1 0.824505 0.598069 0.070214
82 1 0.797024 0.663394 0.070214
83 1 0.778318 0.693547 0.0822704
84 1 0.832978 0.563612 0.0822704
50 1 0.436388 0.832978 0.0461011
51 1 0.401931 0.824505 0.0581576
53 1 0.306453 0.778318 0.0461011
54 1 0.336606 0.797024 0.0581576
90 1 0.436388 0.832978 0.070214
91 1 0.401931 0.824505 0.0822704
93 1 0.306453 0.778318 0.070214
94 1 0.336606 0.797024 0.0822704
45 1 0.704887 0.770079 0.0461011
47 1 0.507009 0.838928 0.0461011
48 1 0.644257 0.806775 0.0461011
49 1 0.6114 0.820173 0.0581576
52 1 0.542398 0.836338 0.0581576
85 1 0.704887 0.770079 0.070214
87 1 0.507009 0.838928 0.070214
88 1 0.644257 0.806775 0.070214
89 1 0.6114 0.820173 0.0822704
92 1 0.542398 0.836338 0.0822704
143 1 0.295113 0.229921 0.0943269
146 1 0.355743 0.193225 0.0943269
147 1 0.3886 0.179827 0.106383
149 1 0.492991 0.161072 0.0943269
150 1 0.457602 0.163662 0.106383
183 1 0.295113 0.229921 0.11844
186 1 0.355743 0.193225 0.11844
189 1 0.492991 0.161072 0.11844
151 1 0.693547 0.221682 0.0943269
152 1 0.563612 0.167022 0.0943269
153 1 0.598069 0.175495 0.106383
156 1 0.663394 0.202976 0.106383
191 1 0.693547 0.221682 0.11844
192 1 0.563612 0.167022 0.11844
141 1 0.175495 0.401931 0.0943269
142 1 0.167022 0.436388 0.106383
144 1 0.202976 0.336606 0.0943269
145 1 0.221682 0.306453 0.106383
181 1 0.175495 0.401931 0.11844
184 1 0.202976 0.336606 0.11844
148 1 0.268005 0.252817 0.106383
154 1 0.747183 0.268005 0.0943269
194 1 0.747183 0.268005 0.11844
155 1 0.770079 0.295113 0.106383
157 1 0.820173 0.3886 0.0943269
158 1 0.806775 0.355743 0.106383
159 1 0.836338 0.457602 0.0943269
160 1 0.838928 0.492991 0.106383
197 1 0.820173 0.3886 0.11844
199 1 0.836338 0.457602 0.11844
135 1 0.179827 0.6114 0.0943269
137 1 0.229921 0.704887 0.106383
138 1 0.163662 0.542398 0.0943269
139 1 0.161072 0.507009 0.106383
140 1 0.193225 0.644257 0.106383
175 1 0.179827 0.6114 0.11844
178 1 0.163662 0.542398 0.11844
136 1 0.252817 0.731995 0.0943269
176 1 0.252817 0.731995 0.11844
126 1 0.731995 0.747183 0.106383
121 1 0.824505 0.598069 0.0943269
122 1 0.797024 0.663394 0.0943269
123 1 0.778318 0.693547 0.106383
124 1 0.832978 0.563612 0.106383
161 1 0.824505 0.598069 0.11844
162 1 0.797024 0.663394 0.11844
130 1 0.436388 0.832978 0.0943269
131 1 0.401931 0.824505 0.106383
133 1 0.306453 0.778318 0.0943269
134 1 0.336606 0.797024 0.106383
170 1 0.436388 0.832978 0.11844
173 1 0.306453 0.778318 0.11844
125 1 0.704887 0.770079 0.0943269
127 1 0.507009 0.838928 0.0943269
128 1 0.644257 0.806775 0.0943269
129 1 0.6114 0.820173 0.106383
132 1 0.542398 0.836338 0.106383
165 1 0.704887 0.770079 0.11844
167 1 0.507009 0.838928 0.11844
168 1 0.644257 0.806775 0.11844
187 1 0.3886 0.179827 0.130496
190 1 0.457602 0.163662 0.130496
223 1 0.295113 0.229921 0.142553
226 1 0.355743 0.193225 0.142553
227 1 0.3886 0.179827 0.154609
229 1 0.492991 0.161072 0.142553
230 1 0.457602 0.163662 0.154609
263 1 0.295113 0.229921 0.166665
266 1 0.355743 0.193225 0.166665
269 1 0.492991 0.161072 0.166665
193 1 0.598069 0.175495 0.130496
196 1 0.663394 0.202976 0.130496
231 1 0.693547 0.221682 0.142553
232 1 0.563612 0.167022 0.142553
233 1 0.598069 0.175495 0.154609
236 1 0.663394 0.202976 0.154609
271 1 0.693547 0.221682 0.166665
272 1 0.563612 0.167022 0.166665
182 1 0.167022 0.436388 0.130496
185 1 0.221682 0.306453 0.130496
221 1 0.175495 0.401931 0.142553
222 1 0.167022 0.436388 0.154609
224 1 0.202976 0.336606 0.142553
225 1 0.221682 0.306453 0.154609
261 1 0.175495 0.401931 0.166665
264 1 0.202976 0.336606 0.166665
188 1 0.268005 0.252817 0.130496
228 1 0.268005 0.252817 0.154609
234 1 0.747183 0.268005 0.142553
274 1 0.747183 0.268005 0.166665
195 1 0.770079 0.295113 0.130496
198 1 0.806775 0.355743 0.130496
200 1 0.838928 0.492991 0.130496
235 1 0.770079 0.295113 0.154609
237 1 0.820173 0.3886 0.142553
238 1 0.806775 0.355743 0.154609
239 1 0.836338 0.457602 0.142553
240 1 0.838928 0.492991 0.154609
277 1 0.820173 0.3886 0.166665
279 1 0.836338 0.457602 0.166665
177 1 0.229921 0.704887 0.130496
179 1 0.161072 0.507009 0.130496
180 1 0.193225 0.644257 0.130496
215 1 0.179827 0.6114 0.142553
217 1 0.229921 0.704887 0.154609
218 1 0.163662 0.542398 0.142553
219 1 0.161072 0.507009 0.154609
220 1 0.193225 0.644257 0.154609
255 1 0.179827 0.6114 0.166665
258 1 0.163662 0.542398 0.166665
216 1 0.252817 0.731995 0.142553
256 1 0.252817 0.731995 0.166665
166 1 0.731995 0.747183 0.130496
206 1 0.731995 0.747183 0.154609
163 1 0.778318 0.693547 0.130496
164 1 0.832978 0.563612 0.130496
201 1 0.824505 0.598069 0.142553
202 1 0.797024 0.663394 0.142553
203 1 0.778318 0.693547 0.154609
204 1 0.832978 0.563612 0.154609
241 1 0.824505 0.598069 0.166665
242 1 0.797024 0.663394 0.166665
171 1 0.401931 0.824505 0.130496
174 1 0.336606 0.797024 0.130496
210 1 0.436388 0.832978 0.142553
211 1 0.401931 0.824505 0.154609
213 1 0.306453 0.778318 0.142553
214 1 0.336606 0.797024 0.154609
250 1 0.436388 0.832978 0.166665
253 1 0.306453 0.778318 0.166665
169 1 0.6114 0.820173 0.130496
172 1 0.542398 0.836338 0.130496
205 1 0.704887 0.770079 0.142553
207 1 0.507009 0.838928 0.142553
208 1 0.644257 0.806775 0.142553
209 1 0.6114 0.820173 0.154609
212 1 0.542398 0.836338 0.154609
245 1 0.704887 0.770079 0.166665
247 1 0.507009 0.838928 0.166665
248 1 0.644257 0.806775 0.166665
267 1 0.3886 0.179827 0.178722
270 1 0.457602 0.163662 0.178722
303 1 0.295113 0.229921 0.190778
306 1 0.355743 0.193225 0.190778
307 1 0.3886 0.179827 0.202835
309 1 0.492991 0.161072 0.190778
310 1 0.457602 0.163662 0.202835
273 1 0.598069 0.175495 0.178722
276 1 0.663394 0.202976 0.178722
311 1 0.693547 0.221682 0.190778
312 1 0.563612 0.167022 0.190778
313 1 0.598069 0.175495 0.202835
316 1 0.663394 0.202976 0.202835
262 1 0.167022 0.436388 0.178722
265 1 0.221682 0.306453 0.178722
301 1 0.175495 0.401931 0.190778
302 1 0.167022 0.436388 0.202835
304 1 0.202976 0.336606 0.190778
305 1 0.221682 0.306453 0.202835
268 1 0.268005 0.252817 0.178722
308 1 0.268005 0.252817 0.202835
314 1 0.747183 0.268005 0.190778
275 1 0.770079 0.295113 0.178722
278 1 0.806775 0.355743 0.178722
280 1 0.838928 0.492991 0.178722
315 1 0.770079 0.295113 0.202835
317 1 0.820173 0.3886 0.190778
318 1 0.806775 0.355743 0.202835
319 1 0.836338 0.457602 0.190778
320 1 0.838928 0.492991 0.202835
257 1 0.229921 0.704887 0.178722
259 1 0.161072 0.507009 0.178722
260 1 0.193225 0.644257 0.178722
295 1 0.179827 0.6114 0.190778
297 1 0.229921 0.704887 0.202835
298 1 0.163662 0.542398 0.190778
299 1 0.161072 0.507009 0.202835
300 1 0.193225 0.644257 0.202835
296 1 0.252817 0.731995 0.190778
246 1 0.731995 0.747183 0.178722
286 1 0.731995 0.747183 0.202835
243 1 0.778318 0.693547 0.178722
244 1 0.832978 0.563612 0.178722
281 1 0.824505 0.598069 0.190778
282 1 0.797024 0.663394 0.190778
283 1 0.778318 0.693547 0.202835
284 1 0.832978 0.563612 0.202835
251 1 0.401931 0.824505 0.178722
254 1 0.336606 0.797024 0.178722
290 1 0.436388 0.832978 0.190778
291 1 0.401931 0.824505 0.202835
293 1 0.306453 0.778318 0.190778
294 1 0.336606 0.797024 0.202835
249 1 0.6114 0.820173 0.178722
252 1 0.542398 0.836338 0.178722
285 1 0.704887 0.770079 0.190778
287 1 0.507009 0.838928 0.190778
288 1 0.644257 0.806775 0.190778
289 1 0.6114 0.820173 0.202835
292 1 0.542398 0.836338 0.202835
343 1 0.295113 0.229921 0.214891
346 1 0.355743 0.193225 0.214891
347 1 0.3886 0.179827 0.226948
349 1 0.492991 0.161072 0.214891
350 1 0.457602 0.163662 0.226948
383 1 0.295113 0.229921 0.239004
386 1 0.355743 0.193225 0.239004
389 1 0.492991 0.161072 0.239004
351 1 0.693547 0.221682 0.214891
352 1 0.563612 0.167022 0.214891
353 1 0.598069 0.175495 0.226948
356 1 0.663394 0.202976 0.226948
391 1 0.693547 0.221682 0.239004
392 1 0.563612 0.167022 0.239004
341 1 0.175495 0.401931 0.214891
342 1 0.167022 0.436388 0.226948
344 1 0.202976 0.336606 0.214891
345 1 0.221682 0.306453 0.226948
381 1 0.175495 0.401931 0.239004
384 1 0.202976 0.336606 0.239004
348 1 0.268005 0.252817 0.226948
354 1 0.747183 0.268005 0.214891
394 1 0.747183 0.268005 0.239004
355 1 0.770079 0.295113 0.226948
357 1 0.820173 0.3886 0.214891
358 1 0.806775 0.355743 0.226948
359 1 0.836338 0.457602 0.214891
360 1 0.838928 0.492991 0.226948
397 1 0.820173 0.3886 0.239004
399 1 0.836338 0.457602 0.239004
335 1 0.179827 0.6114 0.214891
337 1 0.229921 0.704887 0.226948
338 1 0.163662 0.542398 0.214891
339 1 0.161072 0.507009 0.226948
340 1 0.193225 0.644257 0.226948
375 1 0.179827 0.6114 0.239004
378 1 0.163662 0.542398 0.239004
336 1 0.252817 0.731995 0.214891
376 1 0.252817 0.731995 0.239004
326 1 0.731995 0.747183 0.226948
321 1 0.824505 0.598069 0.214891
322 1 0.797024 0.663394 0.214891
323 1 0.778318 0.693547 0.226948
324 1 0.832978 0.563612 0.226948
361 1 0.824505 0.598069 0.239004
362 1 0.797024 0.663394 0.239004
330 1 0.436388 0.832978 0.214891
331 1 0.401931 0.824505 0.226948
333 1 0.306453 0.778318 0.214891
334 1 0.336606 0.797024 0.226948
370 1 0.436388 0.832978 0.239004
373 1 0.306453 0.778318 0.239004
325 1 0.704887 0.770079 0.214891
327 1 0.507009 0.838928 0.214891
328 1 0.644257 0.806775 0.214891
329 1 0.6114 0.820173 0.226948
332 1 0.542398 0.836338 0.226948
365 1 0.704887 0.770079 0.239004
367 1 0.507009 0.838928 0.239004
368 1 0.644257 0.806775 0.239004
387 1 0.3886 0.179827 0.25106
390 1 0.457602 0.163662 0.25106
423 1 0.295113 0.229921 0.263117
426 1 0.355743 0.193225 0.263117
427 1 0.3886 0.179827 0.275173
429 1 0.492991 0.161072 0.263117
430 1 0.457602 0.163662 0.275173
463 1 0.295113 0.229921 0.28723
466 1 0.355743 0.193225 0.28723
469 1 0.492991 0.161072 0.28723
393 1 0.598069 0.175495 0.25106
396 1 0.663394 0.202976 0.25106
431 1 0.693547 0.221682 0.263117
432 1 0.563612 0.167022 0.263117
433 1 0.598069 0.175495 0.275173
436 1 0.663394 0.202976 0.275173
471 1 0.693547 0.221682 0.28723
472 1 0.563612 0.167022 0.28723
382 1 0.167022 0.436388 0.25106
385 1 0.221682 0.306453 0.25106
421 1 0.175495 0.401931 0.263117
422 1 0.167022 0.436388 0.275173
424 1 0.202976 0.336606 0.263117
425 1 0.221682 0.306453 0.275173
461 1 0.175495 0.401931 0.28723
464 1 0.202976 0.336606 0.28723
388 1 0.268005 0.252817 0.25106
428 1 0.268005 0.252817 0.275173
434 1 0.747183 0.268005 0.263117
474 1 0.747183 0.268005 0.28723
395 1 0.770079 0.295113 0.25106
398 1 0.806775 0.355743 0.25106
400 1 0.838928 0.492991 0.25106
435 1 0.770079 0.295113 0.275173
437 1 0.820173 0.3886 0.263117
438 1 0.806775 0.355743 0.275173
439 1 0.836338 0.457602 0.263117
440 1 0.838928 0.492991 0.275173
477 1 0.820173 0.3886 0.28723
479 1 0.836338 0.457602 0.28723
377 1 0.229921 0.704887 0.25106
379 1 0.161072 0.507009 0.25106
380 1 0.193225 0.644257 0.25106
415 1 0.179827 0.6114 0.263117
417 1 0.229921 0.704887 0.275173
418 1 0.163662 0.542398 0.263117
419 1 0.161072 0.507009 0.275173
420 1 0.193225 0.644257 0.275173
455 1 0.179827 0.6114 0.28723
458 1 0.163662 0.542398 0.28723
416 1 0.252817 0.731995 0.263117
456 1 0.252817 0.731995 0.28723
366 1 0.731995 0.747183 0.25106
406 1 0.731995 0.747183 0.275173
363 1 0.778318 0.693547 0.25106
364 1 0.832978 0.563612 0.25106
401 1 0.824505 0.598069 0.263117
402 1 0.797024 0.663394 0.263117
403 1 0.778318 0.693547 0.275173
404 1 0.832978 0.563612 0.275173
441 1 0.824505 0.598069 0.28723
442 1 0.797024 0.663394 0.28723
371 1 0.401931 0.824505 0.25106
374 1 0.336606 0.797024 0.25106
410 1 0.436388 0.832978 0.263117
411 1 0.401931 0.824505 0.275173
413 1 0.306453 0.778318 0.263117
414 1 0.336606 0.797024 0.275173
450 1 0.436388 0.832978 0.28723
453 1 0.306453 0.778318 0.28723
369 1 0.6114 0.820173 0.25106
372 1 0.542398 0.836338 0.25106
405 1 0.704887 0.770079 0.263117
407 1 0.507009 0.838928 0.263117
408 1 0.644257 0.806775 0.263117
409 1 0.6114 0.820173 0.275173
412 1 0.542398 0.836338 0.275173
445 1 0.704887 0.770079 0.28723
447 1 0.507009 0.838928 0.28723
448 1 0.644257 0.806775 0.28723
467 1 0.3886 0.179827 0.299286
470 1 0.457602 0.163662 0.299286
503 1 0.295113 0.229921 0.311343
506 1 0.355743 0.193225 0.311343
507 1 0.3886 0.179827 0.323399
509 1 0.492991 0.161072 0.311343
510 1 0.457602 0.163662 0.323399
473 1 0.598069 0.175495 0.299286
476 1 0.663394 0.202976 0.299286
511 1 0.693547 0.221682 0.311343
512 1 0.563612 0.167022 0.311343
513 1 0.598069 0.175495 0.323399
516 1 0.663394 0.202976 0.323399
462 1 0.167022 0.436388 0.299286
465 1 0.221682 0.306453 0.299286
501 1 0.175495 0.401931 0.311343
502 1 0.167022 0.436388 0.323399
504 1 0.202976 0.336606 0.311343
505 1 0.221682 0.306453 0.323399
468 1 0.268005 0.252817 0.299286
508 1 0.268005 0.252817 0.323399
514 1 0.747183 0.268005 0.311343
475 1 0.770079 0.295113 0.299286
478 1 0.806775 0.355743 0.299286
480 1 0.838928 0.492991 0.299286
515 1 0.770079 0.295113 0.323399
517 1 0.820173 0.3886 0.311343
518 1 0.806775 0.355743 0.323399
519 1 0.836338 0.457602 0.311343
520 1 0.838928 0.492991 0.323399
457 1 0.229921 0.704887 0.299286
459 1 0.161072 0.507009 0.299286
460 1 0.193225 0.644257 0.299286
495 1 0.179827 0.6114 0.311343
497 1 0.229921 0.704887 0.323399
498 1 0.163662 0.542398 0.311343
499 1 0.161072 0.507009 0.323399
500 1 0.193225 0.644257 0.323399
496 1 0.252817 0.731995 0.311343
446 1 0.731995 0.747183 0.299286
486 1 0.731995 0.747183 0.323399
443 1 0.778318 0.693547 0.299286
444 1 0.832978 0.563612 0.299286
481 1 0.824505 0.598069 0.311343
482 1 0.797024 0.663394 0.311343
483 1 0.778318 0.693547 0.323399
484 1 0.832978 0.563612 0.323399
451 1 0.401931 0.824505 0.299286
454 1 0.336606 0.797024 0.299286
490 1 0.436388 0.832978 0.311343
491 1 0.401931 0.824505 0.323399
493 1 0.306453 0.778318 0.311343
494 1 0.336606 0.797024 0.323399
449 1 0.6114 0.820173 0.299286
452 1 0.542398 0.836338 0.299286
485 1 0.704887 0.770079 0.311343
487 1 0.507009 0.838928 0.311343
488 1 0.644257 0.806775 0.311343
489 1 0.6114 0.820173 0.323399
492 1 0.542398 0.836338 0.323399
543 1 0.295113 0.229921 0.335456
546 1 0.355743 0.193225 0.335456
547 1 0.3886 0.179827 0.347512
549 1 0.492991 0.161072 0.335456
550 1 0.457602 0.163662 0.347512
583 1 0.295113 0.229921 0.359568
586 1 0.355743 0.193225 0.359568
587 1 0.3886 0.179827 0.371625
589 1 0.492991 0.161072 0.359568
590 1 0.457602 0.163662 0.371625
551 1 0.693547 0.221682 0.335456
552 1 0.563612 0.167022 0.335456
553 1 0.598069 0.175495 0.347512
556 1 0.663394 0.202976 0.347512
591 1 0.693547 0.221682 0.359568
592 1 0.563612 0.167022 0.359568
593 1 0.598069 0.175495 0.371625
596 1 0.663394 0.202976 0.371625
541 1 0.175495 0.401931 0.335456
542 1 0.167022 0.436388 0.347512
544 1 0.202976 0.336606 0.335456
545 1 0.221682 0.306453 0.347512
581 1 0.175495 0.401931 0.359568
582 1 0.167022 0.436388 0.371625
584 1 0.202976 0.336606 0.359568
585 1 0.221682 0.306453 0.371625
548 1 0.268005 0.252817 0.347512
588 1 0.268005 0.252817 0.371625
554 1 0.747183 0.268005 0.335456
594 1 0.747183 0.268005 0.359568
555 1 0.770079 0.295113 0.347512
557 1 0.820173 0.3886 0.335456
558 1 0.806775 0.355743 0.347512
559 1 0.836338 0.457602 0.335456
560 1 0.838928 0.492991 0.347512
595 1 0.770079 0.295113 0.371625
597 1 0.820173 0.3886 0.359568
598 1 0.806775 0.355743 0.371625
599 1 0.836338 0.457602 0.359568
600 1 0.838928 0.492991 0.371625
535 1 0.179827 0.6114 0.335456
537 1 0.229921 0.704887 0.347512
538 1 0.163662 0.542398 0.335456
539 1 0.161072 0.507009 0.347512
540 1 0.193225 0.644257 0.347512
575 1 0.179827 0.6114 0.359568
577 1 0.229921 0.704887 0.371625
578 1 0.163662 0.542398 0.359568
579 1 0.161072 0.507009 0.371625
580 1 0.193225 0.644257 0.371625
536 1 0.252817 0.731995 0.335456
576 1 0.252817 0.731995 0.359568
526 1 0.731995 0.747183 0.347512
566 1 0.731995 0.747183 0.371625
521 1 0.824505 0.598069 0.335456
522 1 0.797024 0.663394 0.335456
523 1 0.778318 0.693547 0.347512
524 1 0.832978 0.563612 0.347512
561 1 0.824505 0.598069 0.359568
562 1 0.797024 0.663394 0.359568
563 1 0.778318 0.693547 0.371625
564 1 0.832978 0.563612 0.371625
530 1 0.436388 0.832978 0.335456
531 1 0.401931 0.824505 0.347512
533 1 0.306453 0.778318 0.335456
534 1 0.336606 0.797024 0.347512
570 1 0.436388 0.832978 0.359568
571 1 0.401931 0.824505 0.371625
573 1 0.306453 0.778318 0.359568
574 1 0.336606 0.797024 0.371625
525 1 0.704887 0.770079 0.335456
527 1 0.507009 0.838928 0.335456
528 1 0.644257 0.806775 0.335456
529 1 0.6114 0.820173 0.347512
532 1 0.542398 0.836338 0.347512
565 1 0.704887 0.770079 0.359568
567 1 0.507009 0.838928 0.359568
568 1 0.644257 0.806775 0.359568
569 1 0.6114 0.820173 0.371625
572 1 0.542398 0.836338 0.371625
623 1 0.295113 0.229921 0.383681
626 1 0.355743 0.193225 0.383681
627 1 0.3886 0.179827 0.395738
629 1 0.492991 0.161072 0.383681
630 1 0.457602 0.163662 0.395738
663 1 0.295113 0.229921 0.407794
666 1 0.355743 0.193225 0.407794
669 1 0.492991 0.161072 0.407794
631 1 0.693547 0.221682 0.383681
632 1 0.563612 0.167022 0.383681
633 1 0.598069 0.175495 0.395738
636 1 0.663394 0.202976 0.395738
671 1 0.693547 0.221682 0.407794
672 1 0.563612 0.167022 0.407794
621 1 0.175495 0.401931 0.383681
622 1 0.167022 0.436388 0.395738
624 1 0.202976 0.336606 0.383681
625 1 0.221682 0.306453 0.395738
661 1 0.175495 0.401931 0.407794
664 1 0.202976 0.336606 0.407794
628 1 0.268005 0.252817 0.395738
634 1 0.747183 0.268005 0.383681
674 1 0.747183 0.268005 0.407794
635 1 0.770079 0.295113 0.395738
637 1 0.820173 0.3886 0.383681
638 1 0.806775 0.355743 0.395738
639 1 0.836338 0.457602 0.383681
640 1 0.838928 0.492991 0.395738
677 1 0.820173 0.3886 0.407794
679 1 0.836338 0.457602 0.407794
615 1 0.179827 0.6114 0.383681
617 1 0.229921 0.704887 0.395738
618 1 0.163662 0.542398 0.383681
619 1 0.161072 0.507009 0.395738
620 1 0.193225 0.644257 0.395738
655 1 0.179827 0.6114 0.407794
658 1 0.163662 0.542398 0.407794
616 1 0.252817 0.731995 0.383681
656 1 0.252817 0.731995 0.407794
606 1 0.731995 0.747183 0.395738
601 1 0.824505 0.598069 0.383681
602 1 0.797024 0.663394 0.383681
603 1 0.778318 0.693547 0.395738
604 1 0.832978 0.563612 0.395738
641 1 0.824505 0.598069 0.407794
642 1 0.797024 0.663394 0.407794
610 1 0.436388 0.832978 0.383681
611 1 0.401931 0.824505 0.395738
613 1 0.306453 0.778318 0.383681
614 1 0.336606 0.797024 0.395738
650 1 0.436388 0.832978 0.407794
653 1 0.306453 0.778318 0.407794
605 1 0.704887 0.770079 0.383681
607 1 0.507009 0.838928 0.383681
608 1 0.644257 0.806775 0.383681
609 1 0.6114 0.820173 0.395738
612 1 0.542398 0.836338 0.395738
645 1 0.704887 0.770079 0.407794
647 1 0.507009 0.838928 0.407794
648 1 0.644257 0.806775 0.407794
667 1 0.3886 0.179827 0.419851
670 1 0.457602 0.163662 0.419851
703 1 0.295113 0.229921 0.431907
706 1 0.355743 0.193225 0.431907
707 1 0.3886 0.179827 0.443963
709 1 0.492991 0.161072 0.431907
710 1 0.457602 0.163662 0.443963
743 1 0.295113 0.229921 0.45602
746 1 0.355743 0.193225 0.45602
749 1 0.492991 0.161072 0.45602
673 1 0.598069 0.175495 0.419851
676 1 0.663394 0.202976 0.419851
711 1 0.693547 0.221682 0.431907
712 1 0.563612 0.167022 0.431907
713 1 0.598069 0.175495 0.443963
716 1 0.663394 0.202976 0.443963
751 1 0.693547 0.221682 0.45602
752 1 0.563612 0.167022 0.45602
662 1 0.167022 0.436388 0.419851
665 1 0.221682 0.306453 0.419851
701 1 0.175495 0.401931 0.431907
702 1 0.167022 0.436388 0.443963
704 1 0.202976 0.336606 0.431907
705 1 0.221682 0.306453 0.443963
741 1 0.175495 0.401931 0.45602
744 1 0.202976 0.336606 0.45602
668 1 0.268005 0.252817 0.419851
708 1 0.268005 0.252817 0.443963
714 1 0.747183 0.268005 0.431907
754 1 0.747183 0.268005 0.45602
675 1 0.770079 0.295113 0.419851
678 1 0.806775 0.355743 0.419851
680 1 0.838928 0.492991 0.419851
715 1 0.770079 0.295113 0.443963
717 1 0.820173 0.3886 0.431907
718 1 0.806775 0.355743 0.443963
719 1 0.836338 0.457602 0.431907
720 1 0.838928 0.492991 0.443963
757 1 0.820173 0.3886 0.45602
759 1 0.836338 0.457602 0.45602
657 1 0.229921 0.704887 0.419851
659 1 0.161072 0.507009 0.419851
660 1 0.193225 0.644257 0.419851
695 1 0.179827 0.6114 0.431907
697 1 0.229921 0.704887 0.443963
698 1 0.163662 0.542398 0.431907
699 1 0.161072 0.507009 0.443963
700 1 0.193225 0.644257 0.443963
735 1 0.179827 0.6114 0.45602
738 1 0.163662 0.542398 0.45602
696 1 0.252817 0.731995 0.431907
736 1 0.252817 0.731995 0.45602
646 1 0.731995 0.747183 0.419851
686 1 0.731995 0.747183 0.443963
643 1 0.778318 0.693547 0.419851
644 1 0.832978 0.563612 0.419851
681 1 0.824505 0.598069 0.431907
682 1 0.797024 0.663394 0.431907
683 1 0.778318 0.693547 0.443963
684 1 0.832978 0.563612 0.443963
721 1 0.824505 0.598069 0.45602
722 1 0.797024 0.663394 0.45602
651 1 0.401931 0.824505 0.419851
654 1 0.336606 0.797024 0.419851
690 1 0.436388 0.832978 0.431907
691 1 0.401931 0.824505 0.443963
693 1 0.306453 0.778318 0.431907
694 1 0.336606 0.797024 0.443963
730 1 0.436388 0.832978 0.45602
733 1 0.306453 0.778318 0.45602
649 1 0.6114 0.820173 0.419851
652 1 0.542398 0.836338 0.419851
685 1 0.704887 0.770079 0.431907
687 1 0.507009 0.838928 0.431907
688 1 0.644257 0.806775 0.431907
689 1 0.6114 0.820173 0.443963
692 1 0.542398 0.836338 0.443963
725 1 0.704887 0.770079 0.45602
727 1 0.507009 0.838928 0.45602
728 1 0.644257 0.806775 0.45602
747 1 0.3886 0.179827 0.468076
750 1 0.457602 0.163662 0.468076
783 1 0.295113 0.229921 0.480133
786 1 0.355743 0.193225 0.480133
787 1 0.3886 0.179827 0.492189
789 1 0.492991 0.161072 0.480133
790 1 0.457602 0.163662 0.492189
753 1 0.598069 0.175495 0.468076
756 1 0.663394 0.202976 0.468076
791 1 0.693547 0.221682 0.480133
792 1 0.563612 0.167022 0.480133
793 1 0.598069 0.175495 0.492189
796 1 0.663394 0.202976 0.492189
742 1 0.167022 0.436388 0.468076
745 1 0.221682 0.306453 0.468076
781 1 0.175495 0.401931 0.480133
782 1 0.167022 0.436388 0.492189
784 1 0.202976 0.336606 0.480133
785 1 0.221682 0.306453 0.492189
748 1 0.268005 0.252817 0.468076
788 1 0.268005 0.252817 0.492189
794 1 0.747183 0.268005 0.480133
755 1 0.770079 0.295113 0.468076
758 1 0.806775 0.355743 0.468076
760 1 0.838928 0.492991 0.468076
795 1 0.770079 0.295113 0.492189
797 1 0.820173 0.3886 0.480133
798 1 0.806775 0.355743 0.492189
799 1 0.836338 0.457602 0.480133
800 1 0.838928 0.492991 0.492189
737 1 0.229921 0.704887 0.468076
739 1 0.161072 0.507009 0.468076
740 1 0.193225 0.644257 0.468076
775 1 0.179827 0.6114 0.480133
777 1 0.229921 0.704887 0.492189
778 1 0.163662 0.542398 0.480133
779 1 0.161072 0.507009 0.492189
780 1 0.193225 0.644257 0.492189
776 1 0.252817 0.731995 0.480133
726 1 0.731995 0.747183 0.468076
766 1 0.731995 0.747183 0.492189
723 1 0.778318 0.693547 0.468076
724 1 0.832978 0.563612 0.468076
761 1 0.824505 0.598069 0.480133
762 1 0.797024 0.663394 0.480133
763 1 0.778318 0.693547 0.492189
764 1 0.832978 0.563612 0.492189
731 1 0.401931 0.824505 0.468076
734 1 0.336606 0.797024 0.468076
770 1 0.436388 0.832978 0.480133
771 1 0.401931 0.824505 0.492189
773 1 0.306453 0.778318 0.480133
774 1 0.336606 0.797024 0.492189
729 1 0.6114 0.820173 0.468076
732 1 0.542398 0.836338 0.468076
765 1 0.704887 0.770079 0.480133
767 1 0.507009 0.838928 0.480133
768 1 0.644257 0.806775 0.480133
769 1 0.6114 0.820173 0.492189
772 1 0.542398 0.836338 0.492189
823 1 0.295113 0.229921 0.504246
826 1 0.355743 0.193225 0.504246
827 1 0.3886 0.179827 0.516302
829 1 0.492991 0.161072 0.504246
830 1 0.457602 0.163662 0.516302
863 1 0.295113 0.229921 0.528358
866 1 0.355743 0.193225 0.528358
867 1 0.3886 0.179827 0.540415
869 1 0.492991 0.161072 0.528358
870 1 0.457602 0.163662 0.540415
831 1 0.693547 0.221682 0.504246
832 1 0.563612 0.167022 0.504246
833 1 0.598069 0.175495 0.516302
836 1 0.663394 0.202976 0.516302
871 1 0.693547 0.221682 0.528358
872 1 0.563612 0.167022 0.528358
873 1 0.598069 0.175495 0.540415
876 1 0.663394 0.202976 0.540415
821 1 0.175495 0.401931 0.504246
822 1 0.167022 0.436388 0.516302
824 1 0.202976 0.336606 0.504246
825 1 0.221682 0.306453 0.516302
861 1 0.175495 0.401931 0.528358
862 1 0.167022 0.436388 0.540415
864 1 0.202976 0.336606 0.528358
865 1 0.221682 0.306453 0.540415
828 1 0.268005 0.252817 0.516302
868 1 0.268005 0.252817 0.540415
834 1 0.747183 0.268005 0.504246
874 1 0.747183 0.268005 0.528358
835 1 0.770079 0.295113 0.516302
837 1 0.820173 0.3886 0.504246
838 1 0.806775 0.355743 0.516302
839 1 0.836338 0.457602 0.504246
840 1 0.838928 0.492991 0.516302
875 1 0.770079 0.295113 0.540415
877 1 0.820173 0.3886 0.528358
878 1 0.806775 0.355743 0.540415
879 1 0.836338 0.457602 0.528358
880 1 0.838928 0.492991 0.540415
815 1 0.179827 0.6114 0.504246
817 1 0.229921 0.704887 0.516302
818 1 0.163662 0.542398 0.504246
819 1 0.161072 0.507009 0.516302
820 1 0.193225 0.644257 0.516302
855 1 0.179827 0.6114 0.528358
857 1 0.229921 0.704887 0.540415
858 1 0.163662 0.542398 0.528358
859 1 0.161072 0.507009 0.540415
860 1 0.193225 0.644257 0.540415
816 1 0.252817 0.731995 0.504246
856 1 0.252817 0.731995 0.528358
806 1 0.731995 0.747183 0.516302
846 1 0.731995 0.747183 0.540415
801 1 0.824505 0.598069 0.504246
802 1 0.797024 0.663394 0.504246
803 1 0.778318 0.693547 0.516302
804 1 0.832978 0.563612 0.516302
841 1 0.824505 0.598069 0.528358
842 1 0.797024 0.663394 0.528358
843 1 0.778318 0.693547 0.540415
844 1 0.832978 0.563612 0.540415
810 1 0.436388 0.832978 0.504246
811 1 0.401931 0.824505 0.516302
813 1 0.306453 0.778318 0.504246
814 1 0.336606 0.797024 0.516302
850 1 0.436388 0.832978 0.528358
851 1 0.401931 0.824505 0.540415
853 1 0.306453 0.778318 0.528358
854 1 0.336606 0.797024 0.540415
805 1 0.704887 0.770079 0.504246
807 1 0.507009 0.838928 0.504246
808 1 0.644257 0.806775 0.504246
809 1 0.6114 0.820173 0.516302
812 1 0.542398 0.836338 0.516302
845 1 0.704887 0.770079 0.528358
847 1 0.507009 0.838928 0.528358
848 1 0.644257 0.806775 0.528358
849 1 0.6114 0.820173 0.540415
852 1 0.542398 0.836338 0.540415
903 1 0.295113 0.229921 0.552471
906 1 0.355743 0.193225 0.552471
907 1 0.3886 0.179827 0.564528
909 1 0.492991 0.161072 0.552471
910 1 0.457602 0.163662 0.564528
943 1 0.295113 0.229921 0.576584
946 1 0.355743 0.193225 0.576584
949 1 0.492991 0.161072 0.576584
911 1 0.693547 0.221682 0.552471
912 1 0.563612 0.167022 0.552471
913 1 0.598069 0.175495 0.564528
916 1 0.663394 0.202976 0.564528
951 1 0.693547 0.221682 0.576584
952 1 0.563612 0.167022 0.576584
901 1 0.175495 0.401931 0.552471
902 1 0.167022 0.436388 0.564528
904 1 0.202976 0.336606 0.552471
905 1 0.221682 0.306453 0.564528
941 1 0.175495 0.401931 0.576584
944 1 0.202976 0.336606 0.576584
908 1 0.268005 0.252817 0.564528
914 1 0.747183 0.268005 0.552471
954 1 0.747183 0.268005 0.576584
915 1 0.770079 0.295113 0.564528
917 1 0.820173 0.3886 0.552471
918 1 0.806775 0.355743 0.564528
919 1 0.836338 0.457602 0.552471
920 1 0.838928 0.492991 0.564528
957 1 0.820173 0.3886 0.576584