ITEM: TIMESTEP
0
ITEM: NUMBER OF ATOMS
800
ITEM: BOX BOUNDS ff ff ff
-1.0000000000000000e+01 1.0000000000000000e+01
-1.0000000000000000e+01 1.0000000000000000e+01
-2.0000000000000000e+00 5.0000000000000000e+01
ITEM: ATOMS id type xs ys zs
23 1 0.295113 0.229921 0.0431309
26 1 0.355743 0.193225 0.0431309
27 1 0.3886 0.179827 0.06678
29 1 0.492991 0.161072 0.0431309
30 1 0.457602 0.163662 0.06678
31 1 0.693547 0.221682 0.0431309
32 1 0.563612 0.167022 0.0431309
33 1 0.598069 0.175495 0.06678
36 1 0.663394 0.202976 0.06678
21 1 0.175495 0.401931 0.0431309
22 1 0.167022 0.436388 0.06678
24 1 0.202976 0.336606 0.0431309
25 1 0.221682 0.306453 0.06678
28 1 0.268005 0.252817 0.06678
34 1 0.747183 0.268005 0.0431309
35 1 0.770079 0.295113 0.06678
37 1 0.820173 0.3886 0.0431309
38 1 0.806775 0.355743 0.06678
39 1 0.836338 0.457602 0.0431309
40 1 0.838928 0.492991 0.06678
63 1 0.295113 0.229921 0.0904292
66 1 0.355743 0.193225 0.0904292
67 1 0.3886 0.179827 0.114078
69 1 0.492991 0.161072 0.0904292
70 1 0.457602 0.163662 0.114078
103 1 0.295113 0.229921 0.137727
106 1 0.355743 0.193225 0.137727
107 1 0.3886 0.179827 0.161377
109 1 0.492991 0.161072 0.137727
110 1 0.457602 0.163662 0.161377
71 1 0.693547 0.221682 0.0904292
72 1 0.563612 0.167022 0.0904292
73 1 0.598069 0.175495 0.114078
76 1 0.663394 0.202976 0.114078
111 1 0.693547 0.221682 0.137727
112 1 0.563612 0.167022 0.137727
113 1 0.598069 0.175495 0.161377
116 1 0.663394 0.202976 0.161377
61 1 0.175495 0.401931 0.0904292
62 1 0.167022 0.436388 0.114078
64 1 0.202976 0.336606 0.0904292
65 1 0.221682 0.306453 0.114078
101 1 0.175495 0.401931 0.137727
102 1 0.167022 0.436388 0.161377
104 1 0.202976 0.336606 0.137727
105 1 0.221682 0.306453 0.161377
68 1 0.268005 0.252817 0.114078
108 1 0.268005 0.252817 0.161377
74 1 0.747183 0.268005 0.0904292
114 1 0.747183 0.268005 0.137727
75 1 0.770079 0.295113 0.114078
77 1 0.820173 0.3886 0.0904292
78 1 0.806775 0.355743 0.114078
79 1 0.836338 0.457602 0.0904292
80 1 0.838928 0.492991 0.114078
115 1 0.770079 0.295113 0.161377
117 1 0.820173 0.3886 0.137727
118 1 0.806775 0.355743 0.161377
119 1 0.836338 0.457602 0.137727
120 1 0.838928 0.492991 0.161377
143 1 0.295113 0.229921 0.185026
146 1 0.355743 0.193225 0.185026
147 1 0.3886 0.179827 0.208675
149 1 0.492991 0.161072 0.185026
150 1 0.457602 0.163662 0.208675
183 1 0.295113 0.229921 0.232324
186 1 0.355743 0.193225 0.232324
189 1 0.492991 0.161072 0.232324
151 1 0.693547 0.221682 0.185026
152 1 0.563612 0.167022 0.185026
153 1 0.598069 0.175495 0.208675
156 1 0.663394 0.202976 0.208675
191 1 0.693547 0.221682 0.232324
192 1 0.563612 0.167022 0.232324
141 1 0.175495 0.401931 0.185026
142 1 0.167022 0.436388 0.208675
144 1 0.202976 0.336606 0.185026
145 1 0.221682 0.306453 0.208675
181 1 0.175495 0.401931 0.232324
184 1 0.202976 0.336606 0.232324
148 1 0.268005 0.252817 0.208675
154 1 0.747183 0.268005 0.185026
194 1 0.747183 0.268005 0.232324
155 1 0.770079 0.295113 0.208675
157 1 0.820173 0.3886 0.185026
158 1 0.806775 0.355743 0.208675
159 1 0.836338 0.457602 0.185026
160 1 0.838928 0.492991 0.208675
197 1 0.820173 0.3886 0.232324
199 1 0.836338 0.457602 0.232324
187 1 0.3886 0.179827 0.255973
190 1 0.457602 0.163662 0.255973
223 1 0.295113 0.229921 0.279622
226 1 0.355743 0.193225 0.279622
227 1 0.3886 0.179827 0.303272
229 1 0.492991 0.161072 0.279622
230 1 0.457602 0.163662 0.303272
263 1 0.295113 0.229921 0.326921
266 1 0.355743 0.193225 0.326921
269 1 0.492991 0.161072 0.326921
193 1 0.598069 0.175495 0.255973
196 1 0.663394 0.202976 0.255973
231 1 0.693547 0.221682 0.279622
232 1 0.563612 0.167022 0.279622
233 1 0.598069 0.175495 0.303272
236 1 0.663394 0.202976 0.303272
271 1 0.693547 0.221682 0.326921
272 1 0.563612 0.167022 0.326921
182 1 0.167022 0.436388 0.255973
185 1 0.221682 0.306453 0.255973
221 1 0.175495 0.401931 0.279622
222 1 0.167022 0.436388 0.303272
224 1 0.202976 0.336606 0.279622
225 1 0.221682 0.306453 0.303272
261 1 0.175495 0.401931 0.326921
264 1 0.202976 0.336606 0.326921
188 1 0.268005 0.252817 0.255973
228 1 0.268005 0.252817 0.303272
234 1 0.747183 0.268005 0.279622
274 1 0.747183 0.268005 0.326921
195 1 0.770079 0.295113 0.255973
198 1 0.806775 0.355743 0.255973
200 1 0.838928 0.492991 0.255973
235 1 0.770079 0.295113 0.303272
237 1 0.820173 0.3886 0.279622
238 1 0.806775 0.355743 0.303272
239 1 0.836338 0.457602 0.279622
240 1 0.838928 0.492991 0.303272
277 1 0.820173 0.3886 0.326921
279 1 0.836338 0.457602 0.326921
267 1 0.3886 0.179827 0.35057
270 1 0.457602 0.163662 0.35057
303 1 0.295113 0.229921 0.374219
306 1 0.355743 0.193225 0.374219
307 1 0.3886 0.179827 0.397868
309 1 0.492991 0.161072 0.374219
310 1 0.457602 0.163662 0.397868
273 1 0.598069 0.175495 0.35057
276 1 0.663394 0.202976 0.35057
311 1 0.693547 0.221682 0.374219
312 1 0.563612 0.167022 0.374219
313 1 0.598069 0.175495 0.397868
316 1 0.663394 0.202976 0.397868
262 1 0.167022 0.436388 0.35057
265 1 0.221682 0.306453 0.35057
301 1 0.175495 0.401931 0.374219
302 1 0.167022 0.436388 0.397868
304 1 0.202976 0.336606 0.374219
305 1 0.221682 0.306453 0.397868
268 1 0.268005 0.252817 0.35057
308 1 0.268005 0.252817 0.397868
314 1 0.747183 0.268005 0.374219
275 1 0.770079 0.295113 0.35057
278 1 0.806775 0.355743 0.35057
280 1 0.838928 0.492991 0.35057
315 1 0.770079 0.295113 0.397868
317 1 0.820173 0.3886 0.374219
318 1 0.806775 0.355743 0.397868
319 1 0.836338 0.457602 0.374219
320 1 0.838928 0.492991 0.397868
343 1 0.295113 0.229921 0.421517
346 1 0.355743 0.193225 0.421517
347 1 0.3886 0.179827 0.445166
349 1 0.492991 0.161072 0.421517
350 1 0.457602 0.163662 0.445166
383 1 0.295113 0.229921 0.468816
386 1 0.355743 0.193225 0.468816
387 1 0.3886 0.179827 0.492465
389 1 0.492991 0.161072 0.468816
390 1 0.457602 0.163662 0.492465
351 1 0.693547 0.221682 0.421517
352 1 0.563612 0.167022 0.421517
353 1 0.598069 0.175495 0.445166
356 1 0.663394 0.202976 0.445166
391 1 0.693547 0.221682 0.468816
392 1 0.563612 0.167022 0.468816
393 1 0.598069 0.175495 0.492465
396 1 0.663394 0.202976 0.492465
341 1 0.175495 0.401931 0.421517
342 1 0.167022 0.436388 0.445166
344 1 0.202976 0.336606 0.421517
345 1 0.221682 0.306453 0.445166
381 1 0.175495 0.401931 0.468816
382 1 0.167022 0.436388 0.492465
384 1 0.202976 0.336606 0.468816
385 1 0.221682 0.306453 0.492465
348 1 0.268005 0.252817 0.445166
388 1 0.268005 0.252817 0.492465
354 1 0.747183 0.268005 0.421517
394 1 0.747183 0.268005 0.468816
355 1 0.770079 0.295113 0.445166
357 1 0.820173 0.3886 0.421517
358 1 0.806775 0.355743 0.445166
359 1 0.836338 0.457602 0.421517
360 1 0.838928 0.492991 0.445166
395 1 0.770079 0.295113 0.492465
397 1 0.820173 0.3886 0.468816
398 1 0.806775 0.355743 0.492465
399 1 0.836338 0.457602 0.468816
400 1 0.838928 0.492991 0.492465
423 1 0.295113 0.229921 0.516114
426 1 0.355743 0.193225 0.516114
427 1 0.3886 0.179827 0.539763
429 1 0.492991 0.161072 0.516114
430 1 0.457602 0.163662 0.539763
463 1 0.295113 0.229921 0.563412
466 1 0.355743 0.193225 0.563412
469 1 0.492991 0.161072 0.563412
431 1 0.693547 0.221682 0.516114
432 1 0.563612 0.167022 0.516114
433 1 0.598069 0.175495 0.539763
436 1 0.663394 0.202976 0.539763
471 1 0.693547 0.221682 0.563412
472 1 0.563612 0.167022 0.563412
421 1 0.175495 0.401931 0.516114
422 1 0.167022 0.436388 0.539763
424 1 0.202976 0.336606 0.516114
425 1 0.221682 0.306453 0.539763
461 1 0.175495 0.401931 0.563412
464 1 0.202976 0.336606 0.563412
428 1 0.268005 0.252817 0.539763
434 1 0.747183 0.268005 0.516114
474 1 0.747183 0.268005 0.563412
435 1 0.770079 0.295113 0.539763
437 1 0.820173 0.3886 0.516114
438 1 0.806775 0.355743 0.539763
439 1 0.836338 0.457602 0.516114
440 1 0.838928 0.492991 0.539763
477 1 0.820173 0.3886 0.563412
479 1 0.836338 0.457602 0.563412
467 1 0.3886 0.179827 0.587061
470 1 0.457602 0.163662 0.587061
503 1 0.295113 0.229921 0.610711
506 1 0.355743 0.193225 0.610711
507 1 0.3886 0.179827 0.63436
509 1 0.492991 0.161072 0.610711
510 1 0.457602 0.163662 0.63436
543 1 0.295113 0.229921 0.658009
546 1 0.355743 0.193225 0.658009
549 1 0.492991 0.161072 0.658009
473 1 0.598069 0.175495 0.587061
476 1 0.663394 0.202976 0.587061
511 1 0.693547 0.221682 0.610711
512 1 0.563612 0.167022 0.610711
513 1 0.598069 0.175495 0.63436
516 1 0.663394 0.202976 0.63436
551 1 0.693547 0.221682 0.658009
552 1 0.563612 0.167022 0.658009
462 1 0.167022 0.436388 0.587061
465 1 0.221682 0.306453 0.587061
501 1 0.175495 0.401931 0.610711
502 1 0.167022 0.436388 0.63436
504 1 0.202976 0.336606 0.610711
505 1 0.221682 0.306453 0.63436
541 1 0.175495 0.401931 0.658009
544 1 0.202976 0.336606 0.658009
468 1 0.268005 0.252817 0.587061
508 1 0.268005 0.252817 0.63436
514 1 0.747183 0.268005 0.610711
554 1 0.747183 0.268005 0.658009
475 1 0.770079 0.295113 0.587061
478 1 0.806775 0.355743 0.587061
480 1 0.838928 0.492991 0.587061
515 1 0.770079 0.295113 0.63436
517 1 0.820173 0.3886 0.610711
518 1 0.806775 0.355743 0.63436
519 1 0.836338 0.457602 0.610711
520 1 0.838928 0.492991 0.63436
557 1 0.820173 0.3886 0.658009
559 1 0.836338 0.457602 0.658009
547 1 0.3886 0.179827 0.681658
550 1 0.457602 0.163662 0.681658
583 1 0.295113 0.229921 0.705307
586 1 0.355743 0.193225 0.705307
587 1 0.3886 0.179827 0.728956
589 1 0.492991 0.161072 0.705307
590 1 0.457602 0.163662 0.728956
553 1 0.598069 0.175495 0.681658
556 1 0.663394 0.202976 0.681658
591 1 0.693547 0.221682 0.705307
592 1 0.563612 0.167022 0.705307
593 1 0.598069 0.175495 0.728956
596 1 0.663394 0.202976 0.728956
542 1 0.167022 0.436388 0.681658
545 1 0.221682 0.306453 0.681658
581 1 0.175495 0.401931 0.705307
582 1 0.167022 0.436388 0.728956
584 1 0.202976 0.336606 0.705307
585 1 0.221682 0.306453 0.728956
548 1 0.268005 0.252817 0.681658
588 1 0.268005 0.252817 0.728956
594 1 0.747183 0.268005 0.705307
555 1 0.770079 0.295113 0.681658
558 1 0.806775 0.355743 0.681658
560 1 0.838928 0.492991 0.681658
595 1 0.770079 0.295113 0.728956
597 1 0.820173 0.3886 0.705307
598 1 0.806775 0.355743 0.728956
599 1 0.836338 0.457602 0.705307
600 1 0.838928 0.492991 0.728956
623 1 0.295113 0.229921 0.752606
626 1 0.355743 0.193225 0.752606
627 1 0.3886 0.179827 0.776255
629 1 0.492991 0.161072 0.752606
630 1 0.457602 0.163662 0.776255
663 1 0.295113 0.229921 0.799904
666 1 0.355743 0.193225 0.799904
667 1 0.3886 0.179827 0.823553
669 1 0.492991 0.161072 0.799904
670 1 0.457602 0.163662 0.823553
631 1 0.693547 0.221682 0.752606
632 1 0.563612 0.167022 0.752606
633 1 0.598069 0.175495 0.776255
636 1 0.663394 0.202976 0.776255
671 1 0.693547 0.221682 0.799904
672 1 0.563612 0.167022 0.799904
673 1 0.598069 0.175495 0.823553
676 1 0.663394 0.202976 0.823553
621 1 0.175495 0.401931 0.752606
622 1 0.167022 0.436388 0.776255
624 1 0.202976 0.336606 0.752606
625 1 0.221682 0.306453 0.776255
661 1 0.175495 0.401931 0.799904
662 1 0.167022 0.436388 0.823553
664 1 0.202976 0.336606 0.799904
665 1 0.221682 0.306453 0.823553
628 1 0.268005 0.252817 0.776255
668 1 0.268005 0.252817 0.823553
634 1 0.747183 0.268005 0.752606
674 1 0.747183 0.268005 0.799904
635 1 0.770079 0.295113 0.776255
637 1 0.820173 0.3886 0.752606
638 1 0.806775 0.355743 0.776255
639 1 0.836338 0.457602 0.752606
640 1 0.838928 0.492991 0.776255
675 1 0.770079 0.295113 0.823553
677 1 0.820173 0.3886 0.799904
678 1 0.806775 0.355743 0.823553
679 1 0.836338 0.457602 0.799904
680 1 0.838928 0.492991 0.823553
703 1 0.295113 0.229921 0.847202
706 1 0.355743 0.193225 0.847202
707 1 0.3886 0.179827 0.870851
709 1 0.492991 0.161072 0.847202
710 1 0.457602 0.163662 0.870851
743 1 0.295113 0.229921 0.8945
746 1 0.355743 0.193225 0.8945
749 1 0.492991 0.161072 0.8945
711 1 0.693547 0.221682 0.847202
712 1 0.563612 0.167022 0.847202
713 1 0.598069 0.175495 0.870851
716 1 0.663394 0.202976 0.870851
751 1 0.693547 0.221682 0.8945
752 1 0.563612 0.167022 0.8945
701 1 0.175495 0.401931 0.847202
702 1 0.167022 0.436388 0.870851
704 1 0.202976 0.336606 0.847202
705 1 0.221682 0.306453 0.870851
741 1 0.175495 0.401931 0.8945
744 1 0.202976 0.336606 0.8945
708 1 0.268005 0.252817 0.870851
714 1 0.747183 0.268005 0.847202
754 1 0.747183 0.268005 0.8945
715 1 0.770079 0.295113 0.870851
717 1 0.820173 0.3886 0.847202
718 1 0.806775 0.355743 0.870851
719 1 0.836338 0.457602 0.847202
720 1 0.838928 0.492991 0.870851
757 1 0.820173 0.3886 0.8945
759 1 0.836338 0.457602 0.8945
747 1 0.3886 0.179827 0.91815
750 1 0.457602 0.163662 0.91815
783 1 0.295113 0.229921 0.941799
786 1 0.355743 0.193225 0.941799
787 1 0.3886 0.179827 0.965448
789 1 0.492991 0.161072 0.941799
790 1 0.457602 0.163662 0.965448
753 1 0.598069 0.175495 0.91815
756 1 0.663394 0.202976 0.91815
791 1 0.693547 0.221682 0.941799
792 1 0.563612 0.167022 0.941799
793 1 0.598069 0.175495 0.965448
796 1 0.663394 0.202976 0.965448
742 1 0.167022 0.436388 0.91815
745 1 0.221682 0.306453 0.91815
781 1 0.175495 0.401931 0.941799
782 1 0.167022 0.436388 0.965448
784 1 0.202976 0.336606 0.941799
785 1 0.221682 0.306453 0.965448
748 1 0.268005 0.252817 0.91815
788 1 0.268005 0.252817 0.965448
794 1 0.747183 0.268005 0.941799
755 1 0.770079 0.295113 0.91815
758 1 0.806775 0.355743 0.91815
760 1 0.838928 0.492991 0.91815
795 1 0.770079 0.295113 0.965448
797 1 0.820173 0.3886 0.941799
798 1 0.806775 0.355743 0.965448
799 1 0.836338 0.457602 0.941799
800 1 0.838928 0.492991 0.965448
15 1 0.179827 0.6114 0.0431309
17 1 0.229921 0.704887 0.06678
18 1 0.163662 0.542398 0.0431309
19 1 0.161072 0.507009 0.06678
20 1 0.193225 0.644257 0.06678
16 1 0.252817 0.731995 0.0431309
6 1 0.731995 0.747183 0.06678
1 1 0.824505 0.598069 0.0431309
2 1 0.797024 0.663394 0.0431309
3 1 0.778318 0.693547 0.06678
4 1 0.832978 0.563612 0.06678
10 1 0.436388 0.832978 0.0431309
11 1 0.401931 0.824505 0.06678
13 1 0.306453 0.778318 0.0431309
14 1 0.336606 0.797024 0.06678
5 1 0.704887 0.770079 0.0431309
7 1 0.507009 0.838928 0.0431309
8 1 0.644257 0.806775 0.0431309
9 1 0.6114 0.820173 0.06678
12 1 0.542398 0.836338 0.06678
55 1 0.179827 0.6114 0.0904292
57 1 0.229921 0.704887 0.114078
58 1 0.163662 0.542398 0.0904292
59 1 0.161072 0.507009 0.114078
60 1 0.193225 0.644257 0.114078
95 1 0.179827 0.6114 0.137727
97 1 0.229921 0.704887 0.161377
98 1 0.163662 0.542398 0.137727
99 1 0.161072 0.507009 0.161377
100 1 0.193225 0.644257 0.161377
56 1 0.252817 0.731995 0.0904292
96 1 0.252817 0.731995 0.137727
46 1 0.731995 0.747183 0.114078
86 1 0.731995 0.747183 0.161377
41 1 0.824505 0.598069 0.0904292
42 1 0.797024 0.663394 0.0904292
43 1 0.778318 0.693547 0.114078
44 1 0.832978 0.563612 0.114078
81 1 0.824505 0.598069 0.137727
82 1 0.797024 0.663394 0.137727
83 1 0.778318 0.693547 0.161377
84 1 0.832978 0.563612 0.161377
50 1 0.436388 0.832978 0.0904292
51 1 0.401931 0.824505 0.114078
53 1 0.306453 0.778318 0.0904292
54 1 0.336606 0.797024 0.114078
90 1 0.436388 0.832978 0.137727
91 1 0.401931 0.824505 0.161377
93 1 0.306453 0.778318 0.137727
94 1 0.336606 0.797024 0.161377
45 1 0.704887 0.770079 0.0904292
47 1 0.507009 0.838928 0.0904292
48 1 0.644257 0.806775 0.0904292
49 1 0.6114 0.820173 0.114078
52 1 0.542398 0.836338 0.114078
85 1 0.704887 0.770079 0.137727
87 1 0.507009 0.838928 0.137727
88 1 0.644257 0.806775 0.137727
89 1 0.6114 0.820173 0.161377
92 1 0.542398 0.836338 0.161377
135 1 0.179827 0.6114 0.185026
137 1 0.229921 0.704887 0.208675
138 1 0.163662 0.542398 0.185026
139 1 0.161072 0.507009 0.208675
140 1 0.193225 0.644257 0.208675
175 1 0.179827 0.6114 0.232324
178 1 0.163662 0.542398 0.232324
136 1 0.252817 0.731995 0.185026
176 1 0.252817 0.731995 0.232324
126 1 0.731995 0.747183 0.208675
121 1 0.824505 0.598069 0.185026
122 1 0.797024 0.663394 0.185026
123 1 0.778318 0.693547 0.208675
124 1 0.832978 0.563612 0.208675
161 1 0.824505 0.598069 0.232324
162 1 0.797024 0.663394 0.232324
130 1 0.436388 0.832978 0.185026
131 1 0.401931 0.824505 0.208675
133 1 0.306453 0.778318 0.185026
134 1 0.336606 0.797024 0.208675
170 1 0.436388 0.832978 0.232324
173 1 0.306453 0.778318 0.232324
125 1 0.704887 0.770079 0.185026
127 1 0.507009 0.838928 0.185026
128 1 0.644257 0.806775 0.185026
129 1 0.6114 0.820173 0.208675
132 1 0.542398 0.836338 0.208675
165 1 0.704887 0.770079 0.232324
167 1 0.507009 0.838928 0.232324
168 1 0.644257 0.806775 0.232324
177 1 0.229921 0.704887 0.255973
179 1 0.161072 0.507009 0.255973
180 1 0.193225 0.644257 0.255973
215 1 0.179827 0.6114 0.279622
217 1 0.229921 0.704887 0.303272
218 1 0.163662 0.542398 0.279622
219 1 0.161072 0.507009 0.303272
220 1 0.193225 0.644257 0.303272
255 1 0.179827 0.6114 0.326921
258 1 0.163662 0.542398 0.326921
216 1 0.252817 0.731995 0.279622
256 1 0.252817 0.731995 0.326921
166 1 0.731995 0.747183 0.255973
206 1 0.731995 0.747183 0.303272
163 1 0.778318 0.693547 0.255973
164 1 0.832978 0.563612 0.255973
201 1 0.824505 0.598069 0.279622
202 1 0.797024 0.663394 0.279622
203 1 0.778318 0.693547 0.303272
204 1 0.832978 0.563612 0.303272
241 1 0.824505 0.598069 0.326921
242 1 0.797024 0.663394 0.326921
171 1 0.401931 0.824505 0.255973
174 1 0.336606 0.797024 0.255973
210 1 0.436388 0.832978 0.279622
211 1 0.401931 0.824505 0.303272
213 1 0.306453 0.778318 0.279622
214 1 0.336606 0.797024 0.303272
250 1 0.436388 0.832978 0.326921
253 1 0.306453 0.778318 0.326921
169 1 0.6114 0.820173 0.255973
172 1 0.542398 0.836338 0.255973
205 1 0.704887 0.770079 0.279622
207 1 0.507009 0.838928 0.279622
208 1 0.644257 0.806775 0.279622
209 1 0.6114 0.820173 0.303272
212 1 0.542398 0.836338 0.303272
245 1 0.704887 0.770079 0.326921
247 1 0.507009 0.838928 0.326921
248 1 0.644257 0.806775 0.326921
257 1 0.229921 0.704887 0.35057
259 1 0.161072 0.507009 0.35057
260 1 0.193225 0.644257 0.35057
295 1 0.179827 0.6114 0.374219
297 1 0.229921 0.704887 0.397868
298 1 0.163662 0.542398 0.374219
299 1 0.161072 0.507009 0.397868
300 1 0.193225 0.644257 0.397868
296 1 0.252817 0.731995 0.374219
246 1 0.731995 0.747183 0.35057
286 1 0.731995 0.747183 0.397868
243 1 0.778318 0.693547 0.35057
244 1 0.832978 0.563612 0.35057
281 1 0.824505 0.598069 0.374219
282 1 0.797024 0.663394 0.374219
283 1 0.778318 0.693547 0.397868
284 1 0.832978 0.563612 0.397868
251 1 0.401931 0.824505 0.35057
254 1 0.336606 0.797024 0.35057
290 1 0.436388 0.832978 0.374219
291 1 0.401931 0.824505 0.397868
293 1 0.306453 0.778318 0.374219
294 1 0.336606 0.797024 0.397868
249 1 0.6114 0.820173 0.35057
252 1 0.542398 0.836338 0.35057
285 1 0.704887 0.770079 0.374219
287 1 0.507009 0.838928 0.374219
288 1 0.644257 0.806775 0.374219
289 1 0.6114 0.820173 0.397868
292 1 0.542398 0.836338 0.397868
335 1 0.179827 0.6114 0.421517
337 1 0.229921 0.704887 0.445166
338 1 0.163662 0.542398 0.421517
339 1 0.161072 0.507009 0.445166
340 1 0.193225 0.644257 0.445166
375 1 0.179827 0.6114 0.468816
377 1 0.229921 0.704887 0.492465
378 1 0.163662 0.542398 0.468816
379 1 0.161072 0.507009 0.492465
380 1 0.193225 0.644257 0.492465
336 1 0.252817 0.731995 0.421517
376 1 0.252817 0.731995 0.468816
326 1 0.731995 0.747183 0.445166
366 1 0.731995 0.747183 0.492465
321 1 0.824505 0.598069 0.421517
322 1 0.797024 0.663394 0.421517
323 1 0.778318 0.693547 0.445166
324 1 0.832978 0.563612 0.445166
361 1 0.824505 0.598069 0.468816
362 1 0.797024 0.663394 0.468816
363 1 0.778318 0.693547 0.492465
364 1 0.832978 0.563612 0.492465
330 1 0.436388 0.832978 0.421517
331 1 0.401931 0.824505 0.445166
333 1 0.306453 0.778318 0.421517
334 1 0.336606 0.797024 0.445166
370 1 0.436388 0.832978 0.468816
371 1 0.401931 0.824505 0.492465
373 1 0.306453 0.778318 0.468816
374 1 0.336606 0.797024 0.492465
325 1 0.704887 0.770079 0.421517
327 1 0.507009 0.838928 0.421517
328 1 0.644257 0.806775 0.421517
329 1 0.6114 0.820173 0.445166
332 1 0.542398 0.836338 0.445166
365 1 0.704887 0.770079 0.468816
367 1 0.507009 0.838928 0.468816
368 1 0.644257 0.806775 0.468816
369 1 0.6114 0.820173 0.492465
372 1 0.542398 0.836338 0.492465
415 1 0.179827 0.6114 0.516114
417 1 0.229921 0.704887 0.539763
418 1 0.163662 0.542398 0.516114
419 1 0.161072 0.507009 0.539763
420 1 0.193225 0.644257 0.539763
455 1 0.179827 0.6114 0.563412
458 1 0.163662 0.542398 0.563412
416 1 0.252817 0.731995 0.516114
456 1 0.252817 0.731995 0.563412
406 1 0.731995 0.747183 0.539763
401 1 0.824505 0.598069 0.516114
402 1 0.797024 0.663394 0.516114
403 1 0.778318 0.693547 0.539763
404 1 0.832978 0.563612 0.539763
441 1 0.824505 0.598069 0.563412
442 1 0.797024 0.663394 0.563412
410 1 0.436388 0.832978 0.516114
411 1 0.401931 0.824505 0.539763
413 1 0.306453 0.778318 0.516114
414 1 0.336606 0.797024 0.539763
450 1 0.436388 0.832978 0.563412
453 1 0.306453 0.778318 0.563412
405 1 0.704887 0.770079 0.516114
407 1 0.507009 0.838928 0.516114
408 1 0.644257 0.806775 0.516114
409 1 0.6114 0.820173 0.539763
412 1 0.542398 0.836338 0.539763
445 1 0.704887 0.770079 0.563412
447 1 0.507009 0.838928 0.563412
448 1 0.644257 0.806775 0.563412
457 1 0.229921 0.704887 0.587061
459 1 0.161072 0.507009 0.587061
460 1 0.193225 0.644257 0.587061
495 1 0.179827 0.6114 0.610711
497 1 0.229921 0.704887 0.63436
498 1 0.163662 0.542398 0.610711
499 1 0.161072 0.507009 0.63436
500 1 0.193225 0.644257 0.63436
535 1 0.179827 0.6114 0.658009
538 1 0.163662 0.542398 0.658009
496 1 0.252817 0.731995 0.610711
536 1 0.252817 0.731995 0.658009
446 1 0.731995 0.747183 0.587061
486 1 0.731995 0.747183 0.63436
443 1 0.778318 0.693547 0.587061
444 1 0.832978 0.563612 0.587061
481 1 0.824505 0.598069 0.610711
482 1 0.797024 0.663394 0.610711
483 1 0.778318 0.693547 0.63436
484 1 0.832978 0.563612 0.63436
521 1 0.824505 0.598069 0.658009
522 1 0.797024 0.663394 0.658009
451 1 0.401931 0.824505 0.587061
454 1 0.336606 0.797024 0.587061
490 1 0.436388 0.832978 0.610711
491 1 0.401931 0.824505 0.63436
493 1 0.306453 0.778318 0.610711
494 1 0.336606 0.797024 0.63436
530 1 0.436388 0.832978 0.658009
533 1 0.306453 0.778318 0.658009
449 1 0.6114 0.820173 0.587061
452 1 0.542398 0.836338 0.587061
485 1 0.704887 0.770079 0.610711
487 1 0.507009 0.838928 0.610711
488 1 0.644257 0.806775 0.610711
489 1 0.6114 0.820173 0.63436
492 1 0.542398 0.836338 0.63436
525 1 0.704887 0.770079 0.658009
527 1 0.507009 0.838928 0.658009
528 1 0.644257 0.806775 0.658009
537 1 0.229921 0.704887 0.681658
539 1 0.161072 0.507009 0.681658
540 1 0.193225 0.644257 0.681658
575 1 0.179827 0.6114 0.705307
577 1 0.229921 0.704887 0.728956
578 1 0.163662 0.542398 0.705307
579 1 0.161072 0.507009 0.728956
580 1 0.193225 0.644257 0.728956
576 1 0.252817 0.731995 0.705307
526 1 0.731995 0.747183 0.681658
566 1 0.731995 0.747183 0.728956
523 1 0.778318 0.693547 0.681658
524 1 0.832978 0.563612 0.681658
561 1 0.824505 0.598069 0.705307
562 1 0.797024 0.663394 0.705307
563 1 0.778318 0.693547 0.728956
564 1 0.832978 0.563612 0.728956
531 1 0.401931 0.824505 0.681658
534 1 0.336606 0.797024 0.681658
570 1 0.436388 0.832978 0.705307
571 1 0.401931 0.824505 0.728956
573 1 0.306453 0.778318 0.705307
574 1 0.336606 0.797024 0.728956
529 1 0.6114 0.820173 0.681658
532 1 0.542398 0.836338 0.681658
565 1 0.704887 0.770079 0.705307
567 1 0.507009 0.838928 0.705307
568 1 0.644257 0.806775 0.705307
569 1 0.6114 0.820173 0.728956
572 1 0.542398 0.836338 0.728956
615 1 0.179827 0.6114 0.752606
617 1 0.229921 0.704887 0.776255
618 1 0.163662 0.542398 0.752606
619 1 0.161072 0.507009 0.776255
620 1 0.193225 0.644257 0.776255
655 1 0.179827 0.6114 0.799904
657 1 0.229921 0.704887 0.823553
658 1 0.163662 0.542398 0.799904
659 1 0.161072 0.507009 0.823553
660 1 0.193225 0.644257 0.823553
616 1 0.252817 0.731995 0.752606
656 1 0.252817 0.731995 0.799904
606 1 0.731995 0.747183 0.776255
646 1 0.731995 0.747183 0.823553
601 1 0.824505 0.598069 0.752606
602 1 0.797024 0.663394 0.752606
603 1 0.778318 0.693547 0.776255
604 1 0.832978 0.563612 0.776255
641 1 0.824505 0.598069 0.799904
642 1 0.797024 0.663394 0.799904
643 1 0.778318 0.693547 0.823553
644 1 0.832978 0.563612 0.823553
610 1 0.436388 0.832978 0.752606
611 1 0.401931 0.824505 0.776255
613 1 0.306453 0.778318 0.752606
614 1 0.336606 0.797024 0.776255
650 1 0.436388 0.832978 0.799904
651 1 0.401931 0.824505 0.823553
653 1 0.306453 0.778318 0.799904
654 1 0.336606 0.797024 0.823553
605 1 0.704887 0.770079 0.752606
607 1 0.507009 0.838928 0.752606
608 1 0.644257 0.806775 0.752606
609 1 0.6114 0.820173 0.776255
612 1 0.542398 0.836338 0.776255
645 1 0.704887 0.770079 0.799904
647 1 0.507009 0.838928 0.799904
648 1 0.644257 0.806775 0.799904
649 1 0.6114 0.820173 0.823553
652 1 0.542398 0.836338 0.823553
695 1 0.179827 0.6114 0.847202
697 1 0.229921 0.704887 0.870851
698 1 0.163662 0.542398 0.847202
699 1 0.161072 0.507009 0.870851
700 1 0.193225 0.644257 0.870851
735 1 0.179827 0.6114 0.8945
738 1 0.163662 0.542398 0.8945
696 1 0.252817 0.731995 0.847202
736 1 0.252817 0.731995 0.8945
686 1 0.731995 0.747183 0.870851
681 1 0.824505 0.598069 0.847202
682 1 0.797024 0.663394 0.847202
683 1 0.778318 0.693547 0.870851
684 1 0.832978 0.563612 0.870851
721 1 0.824505 0.598069 0.8945
722 1 0.797024 0.663394 0.8945
690 1 0.436388 0.832978 0.847202
691 1 0.401931 0.824505 0.870851
693 1 0.306453 0.778318 0.847202
694 1 0.336606 0.797024 0.870851
730 1 0.436388 0.832978 0.8945
733 1 0.306453 0.778318 0.8945
685 1 0.704887 0.770079 0.847202
687 1 0.507009 0.838928 0.847202
688 1 0.644257 0.806775 0.847202
689 1 0.6114 0.820173 0.870851
692 1 0.542398 0.836338 0.870851
725 1 0.704887 0.770079 0.8945
727 1 0.507009 0.838928 0.8945
728 1 0.644257 0.806775 0.8945
737 1 0.229921 0.704887 0.91815
739 1 0.161072 0.507009 0.91815
740 1 0.193225 0.644257 0.91815
775 1 0.179827 0.6114 0.941799
777 1 0.229921 0.704887 0.965448
778 1 0.163662 0.542398 0.941799
779 1 0.161072 0.507009 0.965448
780 1 0.193225 0.644257 0.965448
776 1 0.252817 0.731995 0.941799
726 1 0.731995 0.747183 0.91815
766 1 0.731995 0.747183 0.965448
723 1 0.778318 0.693547 0.91815
724 1 0.832978 0.563612 0.91815
761 1 0.824505 0.598069 0.941799
762 1 0.797024 0.663394 0.941799
763 1 0.778318 0.693547 0.965448
764 1 0.832978 0.563612 0.965448
731 1 0.401931 0.824505 0.91815
734 1 0.336606 0.797024 0.91815
770 1 0.436388 0.832978 0.941799
771 1 0.401931 0.824505 0.965448
773 1 0.306453 0.778318 0.941799
774 1 0.336606 0.797024 0.965448
729 1 0.6114 0.820173 0.91815
732 1 0.542398 0.836338 0.91815
765 1 0.704887 0.770079 0.941799
767 1 0.507009 0.838928 0.941799
768 1 0.644257 0.806775 0.941799
769 1 0.6114 0.820173 0.965448
772 1 0.542398 0.836338 0.965448
ITEM: TIMESTEP
1000
ITEM: NUMBER OF ATOMS
800
ITEM: BOX BOUNDS ff ff ff
-1.0000000000000000e+01 1.0000000000000000e+01
-1.0000000000000000e+01 1.0000000000000000e+01
-2.0000000000000000e+00 5.0000000000000000e+01
ITEM: ATOMS id type xs ys zs
23 1 0.295113 0.229921 0.0431309
26 1 0.355743 0.193225 0.0431309
27 1 0.3886 0.179827 0.06678
29 1 0.492991 0.161072 0.0431309
30 1 0.457602 0.163662 0.06678
31 1 0.693547 0.221682 0.0431309
32 1 0.563612 0.167022 0.0431309
33 1 0.598069 0.175495 0.06678
36 1 0.663394 0.202976 0.06678
21 1 0.175495 0.401931 0.0431309
22 1 0.167022 0.436388 0.06678
24 1 0.202976 0.336606 0.0431309
25 1 0.221682 0.306453 0.06678
28 1 0.268005 0.252817 0.06678
34 1 0.747183 0.268005 0.0431309
35 1 0.770079 0.295113 0.06678
37 1 0.820173 0.3886 0.0431309
38 1 0.806775 0.355743 0.06678
39 1 0.836338 0.457602 0.0431309
40 1 0.838928 0.492991 0.06678
63 1 0.299571 0.235887 0.0898339
66 1 0.35772 0.194047 0.0900873
67 1 0.390785 0.185753 0.114652
69 1 0.493799 0.162202 0.0900035
70 1 0.459968 0.171775 0.113766
103 1 0.294349 0.231395 0.136776
106 1 0.355128 0.196369 0.137301
107 1 0.390191 0.195965 0.160645
109 1 0.493391 0.169755 0.137398
110 1 0.459545 0.180374 0.16082
71 1 0.695266 0.220541 0.0898212
72 1 0.565329 0.167078 0.0906204
73 1 0.598586 0.174416 0.113894
76 1 0.663212 0.204897 0.11282
111 1 0.695321 0.21971 0.137473
112 1 0.563181 0.172322 0.137719
113 1 0.597685 0.1812 0.161022
116 1 0.666005 0.199233 0.161428
61 1 0.172701 0.401486 0.0903549
62 1 0.172824 0.439822 0.114101
64 1 0.204285 0.337726 0.0896768
65 1 0.223427 0.307569 0.112985
101 1 0.182545 0.406125 0.137663
102 1 0.17448 0.438711 0.160573
104 1 0.206976 0.341216 0.13696
105 1 0.220738 0.304959 0.159501
68 1 0.268867 0.253982 0.11287
108 1 0.267004 0.25181 0.160021
74 1 0.747563 0.267157 0.0902656
114 1 0.747123 0.266665 0.136658
75 1 0.76539 0.296713 0.113304
77 1 0.810976 0.392808 0.090381
78 1 0.799851 0.358822 0.113325
79 1 0.826466 0.4621 0.0906453
80 1 0.825739 0.498739 0.114014
115 1 0.766566 0.295547 0.159619
117 1 0.806414 0.39382 0.136581
118 1 0.788159 0.360133 0.159556
119 1 0.823813 0.462574 0.137234
120 1 0.820463 0.498264 0.16086
143 1 0.295744 0.236088 0.183824
146 1 0.358764 0.207375 0.183588
147 1 0.391971 0.206417 0.207873
149 1 0.494572 0.18531 0.184537
150 1 0.460583 0.191851 0.207675
183 1 0.294726 0.237615 0.230741
186 1 0.358377 0.213175 0.230874
189 1 0.494459 0.193166 0.231502
151 1 0.698123 0.214671 0.184715
152 1 0.566175 0.177383 0.184939
153 1 0.599285 0.190225 0.208
156 1 0.668961 0.200884 0.208352
191 1 0.701738 0.218323 0.231852
192 1 0.564364 0.188348 0.231869
141 1 0.182833 0.403531 0.18352
142 1 0.178956 0.436206 0.207249
144 1 0.205078 0.336232 0.182739
145 1 0.217766 0.305258 0.206653
181 1 0.183275 0.404265 0.230965
184 1 0.196779 0.335851 0.230251
148 1 0.26749 0.256838 0.207319
154 1 0.748849 0.265083 0.18389
194 1 0.75145 0.268114 0.231618
155 1 0.766963 0.295948 0.207727
157 1 0.794592 0.395623 0.183539
158 1 0.784253 0.363191 0.207128
159 1 0.813635 0.461163 0.184515
199 1 0.811562 0.461557 0.231652
197 1 0.79531 0.39377 0.231024
160 1 0.813833 0.495335 0.207788
187 1 0.392401 0.207348 0.254755
190 1 0.459801 0.197369 0.254976
223 1 0.291394 0.233111 0.277609
226 1 0.357902 0.210845 0.278331
227 1 0.392523 0.207533 0.302179
229 1 0.492798 0.196447 0.278786
230 1 0.459987 0.193259 0.301891
263 1 0.289707 0.230499 0.324773
266 1 0.356983 0.21357 0.325232
269 1 0.493689 0.194771 0.32695
193 1 0.596355 0.191986 0.255495
196 1 0.667347 0.205795 0.256136
231 1 0.69898 0.223156 0.279919
232 1 0.563841 0.192402 0.279484
233 1 0.598527 0.197722 0.304054
236 1 0.667532 0.207903 0.303632